/*--------------------------------*- C++ -*----------------------------------*\
| =========                 |                                                 |
| \\      /  F ield         | OpenFOAM: The Open Source CFD Toolbox           |
|  \\    /   O peration     | Version:  v1606+                                |
|   \\  /    A nd           | Web:      www.OpenFOAM.com                      |
|    \\/     M anipulation  |                                                 |
\*---------------------------------------------------------------------------*/
FoamFile
{
    version     2.0;
    format      ascii;
    class       volScalarField;
    location    "0.02/Shaded";
    object      T;
}
// * * * * * * * * * * * * * * * * * * * * * * * * * * * * * * * * * * * * * //

dimensions      [0 0 0 1 0 0 0];

internalField   nonuniform List<scalar> 
4320
(
346.58697
346.11943
345.64839
345.17415
344.69721
344.21797
343.73674
343.25377
342.76925
342.28335
341.79619
341.30789
340.81855
340.32825
339.83705
339.34502
338.8522
338.35862
337.86433
337.36934
336.87367
336.37733
335.88032
335.38264
334.88429
334.38525
333.8855
333.38503
332.88381
332.38181
331.87899
331.37533
330.87078
330.36531
329.85887
329.35142
328.8429
328.33327
327.82248
327.31048
326.79721
326.28262
325.76666
325.24927
324.7304
324.20998
323.68798
323.16432
322.63896
322.11183
321.58289
321.05209
320.51935
319.98465
319.44791
318.90908
318.36812
317.82497
317.27956
316.73186
316.18178
315.62928
315.07427
314.51667
313.95638
313.39328
312.82718
312.25782
311.68475
311.10702
310.52227
309.92297
346.07669
345.60056
345.12332
344.64433
344.16354
343.68105
343.19701
342.71157
342.22487
341.73704
341.24819
340.75841
340.2678
339.77641
339.28433
338.79158
338.29823
337.80431
337.30983
336.81483
336.31932
335.8233
335.32677
334.82973
334.33217
333.83408
333.33543
332.83619
332.33635
331.83587
331.33472
330.83285
330.33022
329.82678
329.3225
328.81732
328.31119
327.80406
327.29586
326.78655
326.27607
325.76435
325.25134
324.73699
324.22121
323.70397
323.18518
322.6648
322.14276
321.61899
321.09343
320.56603
320.03671
319.50541
318.97206
318.4366
317.89895
317.35904
316.8168
316.27213
315.72494
315.17512
314.62254
314.06704
313.50842
312.9464
312.38061
311.81045
311.23499
310.65254
310.06001
309.45145
345.5644
345.08171
344.59885
344.11518
343.63041
343.14451
342.65748
342.16942
341.68041
341.19053
340.69988
340.20854
339.71657
339.22404
338.731
338.2375
337.74359
337.24928
336.7546
336.25957
335.76421
335.2685
334.77246
334.27607
333.77932
333.28219
332.78466
332.28669
331.78827
331.28935
330.78989
330.28985
329.78918
329.28784
328.78577
328.28292
327.77923
327.27464
326.7691
326.26255
325.75491
325.24613
324.73614
324.22487
323.71226
323.19825
322.68275
322.16571
321.64705
321.1267
320.6046
320.08066
319.55482
319.02699
318.49711
317.96508
317.43082
316.89424
316.35524
315.8137
315.2695
314.72249
314.17249
313.61929
313.0626
312.50205
311.93714
311.36712
310.7909
310.20683
309.61238
309.00405
345.04991
344.56189
344.07406
343.58594
343.09726
342.60789
342.1178
341.62702
341.13559
340.64358
340.15104
339.65805
339.16466
338.67092
338.17688
337.68259
337.18807
336.69335
336.19845
335.70338
335.20816
334.71277
334.21722
333.72149
333.22557
332.72943
332.23304
331.73638
331.23941
330.74209
330.24437
329.74621
329.24756
328.74836
328.24856
327.74809
327.24691
326.74493
326.24211
325.73837
325.23365
324.72787
324.22096
323.71286
323.20349
322.69277
322.18064
321.66701
321.15181
320.63496
320.11637
319.59598
319.0737
318.54943
318.02309
317.49458
316.9638
316.43065
315.895
315.35672
314.81566
314.27163
313.72443
313.1738
312.61941
312.06083
311.49751
310.9287
310.35338
309.77016
309.17728
308.57274
344.5334
344.04073
343.54841
343.05611
342.56361
342.0708
341.57761
341.08405
340.59014
340.09592
339.60143
339.10672
338.61184
338.11685
337.62177
337.12663
336.63148
336.13633
335.64119
335.14608
334.65099
334.15593
333.66088
333.16583
332.67075
332.17563
331.68043
331.18511
330.68963
330.19395
329.69803
329.2018
328.70522
328.20822
327.71074
327.21273
326.71412
326.21483
325.71479
325.21394
324.7122
324.2095
323.70576
323.20089
322.69483
322.1875
321.6788
321.16866
320.657
320.14373
319.62875
319.11199
318.59335
318.07273
317.55003
317.02515
316.49796
315.96836
315.43619
314.90132
314.36357
313.82274
313.2786
312.73086
312.17917
311.62311
311.06213
310.49554
309.92247
309.34186
308.75251
308.15326
344.015
343.51806
343.02156
342.52529
342.02909
341.53287
341.03659
340.54022
340.04377
339.54728
339.05078
338.55431
338.0579
337.5616
337.06543
336.56943
336.07362
335.57802
335.08264
334.58747
334.09253
333.5978
333.10327
332.60891
332.11471
331.62064
331.12665
330.63271
330.13878
329.64479
329.15071
328.65648
328.16202
327.66729
327.17222
326.67673
326.18075
325.68421
325.18704
324.68916
324.19049
323.69094
323.19044
322.6889
322.18624
321.68236
321.17719
320.67064
320.1626
319.653
319.14172
318.62869
318.11379
317.59692
317.07797
316.55682
316.03335
315.50743
314.9789
314.44761
313.91337
313.37597
312.83516
312.29065
311.7421
311.1891
310.63114
310.06762
309.49785
308.92102
308.33634
307.7431
343.49479
342.99379
342.49329
341.99319
341.49338
340.99381
340.49442
339.99522
339.49621
338.99741
338.49885
338.00056
337.50258
337.00494
336.50766
336.01077
335.51428
335.01821
334.52257
334.02736
333.53257
333.03818
332.54419
332.05056
331.55727
331.06428
330.57155
330.07904
329.58669
329.09446
328.60229
328.11011
327.61785
327.12546
326.63285
326.13995
325.6467
325.153
324.65877
324.16394
323.66841
323.17211
322.67494
322.17681
321.67764
321.17732
320.67577
320.17289
319.66857
319.16273
318.65526
318.14606
317.63501
317.122
316.60692
316.08964
315.57002
315.04793
314.5232
313.99568
313.46515
312.93142
312.39423
311.85329
311.30829
310.75884
310.20449
309.64474
309.07904
308.50679
307.92746
307.34059
342.97279
342.46782
341.96344
341.45959
340.95623
340.45332
339.95084
339.44879
338.94719
338.44604
337.94539
337.44525
336.94566
336.44664
335.94822
335.45041
334.95323
334.45669
333.9608
333.46554
332.97091
332.47688
331.98345
331.49058
330.99823
330.50637
330.01495
329.52392
329.03322
328.54281
328.0526
327.56254
327.07256
326.58258
326.09252
325.6023
325.11184
324.62106
324.12987
323.63818
323.1459
322.65293
322.15918
321.66456
321.16897
320.67231
320.17448
319.67537
319.17489
318.67292
318.16936
317.6641
317.15701
316.64799
316.1369
315.62362
315.108
314.58989
314.06914
313.54556
313.01898
312.48916
311.95586
311.41883
310.87775
310.33228
309.78204
309.22661
308.66555
308.09843
307.52487
306.94458
342.44896
341.94006
341.43183
340.92428
340.41739
339.91116
339.40558
338.90067
338.39644
337.89292
337.39014
336.88811
336.38688
335.88646
335.38687
334.88813
334.39025
333.89324
333.39709
332.90179
332.40734
331.9137
331.42086
330.92878
330.43742
329.94673
329.45667
328.96718
328.4782
327.98966
327.5015
327.01364
326.52601
326.03852
325.55109
325.06364
324.57607
324.08831
323.60025
323.11179
322.62285
322.13331
321.64309
321.15208
320.66018
320.16728
319.67327
319.17805
318.6815
318.18352
317.68399
317.18278
316.67979
316.17488
315.66792
315.15877
314.6473
314.13334
313.61674
313.09732
312.57487
312.04921
311.52009
310.98725
310.45044
309.90933
309.3636
308.81292
308.25693
307.69532
307.1278
306.55419
341.92324
341.4104
340.89833
340.38708
339.87666
339.36709
338.85839
338.35059
337.84371
337.33778
336.83284
336.3289
335.82599
335.32414
334.82337
334.32369
333.8251
333.32761
332.83122
332.3359
331.84165
331.34843
330.85622
330.36497
329.87464
329.38518
328.89654
328.40865
327.92145
327.43487
326.94883
326.46325
325.97805
325.49314
325.00844
324.52385
324.03927
323.55462
323.06978
322.58467
322.09917
321.61318
321.12659
320.6393
320.15119
319.66216
319.17209
318.68087
318.18838
317.69451
317.19912
316.7021
316.20333
315.70266
315.19997
314.69511
314.18794
313.6783
313.16603
312.65094
312.13286
311.61157
311.08687
310.55852
310.02626
309.48984
308.94896
308.40337
307.85277
307.29692
306.73564
306.16878
341.39556
340.87872
340.36278
339.84779
339.33382
338.82089
338.30904
337.79831
337.28875
336.78038
336.27323
335.76734
335.26274
334.75945
334.25748
333.75684
333.25755
332.75959
332.26296
331.76764
331.27362
330.78085
330.2893
329.79893
329.30969
328.82153
328.33437
327.84815
327.36281
326.87826
326.39442
325.91121
325.42854
324.94631
324.46443
323.9828
323.50131
323.01988
322.53838
322.05671
321.57477
321.09243
320.60959
320.12614
319.64195
319.15691
318.6709
318.1838
317.69549
317.20584
316.71473
316.22203
315.72761
315.23133
314.73305
314.23263
313.72992
313.22476
312.71699
312.20644
311.69291
311.17623
310.65618
310.13255
309.60512
309.07366
308.53791
307.99767
307.45271
306.90283
306.34789
305.78781
340.86581
340.34489
339.825
339.30624
338.78865
338.27231
337.75727
337.24358
336.73129
336.22044
335.71106
335.20319
334.69687
334.19211
333.68893
333.18733
332.68733
332.18891
331.69207
331.19678
330.70301
330.21073
329.7199
329.23046
328.74237
328.25556
327.76996
327.28549
326.80209
326.31966
325.83812
325.35737
324.87732
324.39787
323.91892
323.44036
322.96208
322.48397
322.00593
321.52783
321.04955
320.57099
320.09202
319.61252
319.13238
318.65145
318.16963
317.68678
317.20278
316.71749
316.2308
315.74255
315.25262
314.76087
314.26715
313.77132
313.27323
312.77272
312.26963
311.76379
311.25502
310.74314
310.22796
309.70928
309.18691
308.66063
308.13025
307.59558
307.05643
306.51266
305.96416
305.41087
340.33385
339.80875
339.28484
338.76221
338.24095
337.72115
337.20286
336.68615
336.17108
335.6577
335.14605
334.63618
334.12811
333.62186
333.11746
332.6149
332.1142
331.61533
331.1183
330.62306
330.12959
329.63784
329.14778
328.65934
328.17246
327.68708
327.20311
326.72048
326.23911
325.75889
325.27974
324.80156
324.32425
323.84769
323.37178
322.8964
322.42144
321.94679
321.47231
320.9979
320.52343
320.04877
319.5738
319.09838
318.62241
318.14573
317.66822
317.18976
316.7102
316.22942
315.74727
315.26362
314.77833
314.29125
313.80225
313.31117
312.81785
312.32216
311.82391
311.32296
310.81913
310.31225
309.80214
309.28861
308.7715
308.25061
307.72579
307.19685
306.66367
306.12612
305.58412
305.03763
339.79954
339.27015
338.7421
338.21552
337.6905
337.16715
336.64554
336.12575
335.60785
335.09189
334.57794
334.06602
333.55618
333.04843
332.54279
332.03928
331.53788
331.03859
330.54138
330.04624
329.55311
329.06195
328.57271
328.08533
327.59974
327.11587
326.63362
326.15292
325.67367
325.19578
324.71913
324.24363
323.76916
323.29561
322.82286
322.35079
321.87928
321.4082
320.93743
320.46684
319.9963
319.52567
319.05483
318.58364
318.11197
317.63968
317.16663
316.69269
316.21772
315.74158
315.26413
314.78522
314.30471
313.82246
313.33832
312.85214
312.36377
311.87305
311.37982
310.88393
310.38522
309.88351
309.37864
308.87046
308.35878
307.84346
307.32435
306.8013
306.2742
305.74295
305.20749
304.66779
339.26273
338.7289
338.1966
337.66594
337.13707
336.61007
336.08506
335.56212
335.04133
334.52274
334.00643
333.49244
332.98079
332.47153
331.96465
331.46018
330.9581
330.45841
329.96107
329.46605
328.97331
328.4828
327.99446
327.50821
327.02399
326.54171
326.06128
325.58261
325.10559
324.63013
324.1561
323.68339
323.21189
322.74147
322.27201
321.80338
321.33545
320.86809
320.40116
319.93453
319.46806
319.00161
318.53504
318.06822
317.601
317.13323
316.66479
316.19552
315.72528
315.25393
314.78132
314.3073
313.83174
313.35447
312.87534
312.39422
311.91095
311.42537
310.93732
310.44666
309.95323
309.45686
308.95741
308.45473
307.94865
307.43904
306.92578
306.40874
305.88781
305.36293
304.83404
304.30113
338.72323
338.18481
337.64811
337.11326
336.5804
336.04967
335.52116
334.99499
334.47123
333.94996
333.43124
332.91513
332.40166
331.89086
331.38274
330.87732
330.37458
329.87451
329.37707
328.88223
328.38994
327.90014
327.41276
326.92773
326.44497
325.96439
325.48588
325.00934
324.53467
324.06175
323.59046
323.12068
322.65228
322.18513
321.7191
321.25404
320.78984
320.32633
319.86339
319.40086
318.93861
318.47648
318.01434
317.55203
317.08941
316.62633
316.16264
315.6982
315.23284
314.76644
314.29882
313.82985
313.35937
312.88724
312.41329
311.93739
311.45937
310.97909
310.49638
310.01111
309.52312
309.03226
308.53838
308.04134
307.541
307.03725
306.52995
306.01901
305.50434
304.98588
304.46359
303.93744
338.18086
337.63768
337.09641
336.55722
336.02026
335.48566
334.95356
334.42406
333.89726
333.37323
332.85206
332.33379
331.81847
331.30612
330.79676
330.29039
329.78701
329.28659
328.7891
328.29449
327.80271
327.31369
326.82737
326.34365
325.86244
325.38365
324.90718
324.4329
323.9607
323.49045
323.02203
322.55531
322.09016
321.62642
321.16396
320.70263
320.2423
319.7828
319.32399
318.86573
318.40785
317.95021
317.49264
317.03501
316.57715
316.11891
315.66013
315.20066
314.74035
314.27905
313.81659
313.35282
312.88759
312.42075
311.95214
311.48161
311.00901
310.53418
310.05697
309.57724
309.09485
308.60963
308.12147
307.63022
307.13576
306.63797
306.13675
305.632
305.12365
304.61165
304.09597
303.57658
337.63541
337.08727
336.54127
335.99758
335.45636
334.91778
334.38196
333.84904
333.3191
332.79226
332.26857
331.7481
331.23089
330.71698
330.20638
329.69908
329.19508
328.69435
328.19685
327.70254
327.21134
326.72319
326.23801
325.75569
325.27615
324.79928
324.32495
323.85306
323.38346
322.91603
322.45063
321.98712
321.52535
321.06517
320.60644
320.149
319.6927
319.23737
318.78287
318.32902
317.87568
317.42268
316.96986
316.51707
316.06413
315.61089
315.15719
314.70287
314.24777
313.79172
313.33458
312.87618
312.41636
311.95497
311.49186
311.02686
310.55983
310.09061
309.61906
309.14502
308.66837
308.18895
307.70664
307.22131
306.73284
306.24112
305.74606
305.24758
304.74562
304.24011
303.73105
303.21841
337.08665
336.53336
335.98243
335.43406
334.88843
334.34572
333.80606
333.2696
332.73645
332.2067
331.68043
331.15772
330.63861
330.12312
329.61127
329.10306
328.59847
328.09748
327.60003
327.10608
326.61554
326.12835
325.6444
325.16361
324.68585
324.21101
323.73897
323.2696
322.80274
322.33828
321.87604
321.4159
320.95768
320.50123
320.04639
319.59301
319.1409
318.68991
318.23988
317.79063
317.342
316.89382
316.44592
315.99813
315.55028
315.10222
314.65377
314.20476
313.75503
313.30442
312.85276
312.39989
311.94565
311.48988
311.03242
310.57311
310.11181
309.64836
309.18261
308.71442
308.24365
307.77016
307.29383
306.81454
306.33217
305.84663
305.35782
304.86568
304.37014
303.87116
303.36872
302.86282
336.53435
335.97567
335.41961
334.86637
334.31616
333.76916
333.22553
332.68541
332.14894
331.61621
331.08731
330.56231
330.04125
329.52417
329.01109
328.50198
327.99685
327.49564
326.9983
326.50479
326.015
325.52886
325.04627
324.56711
324.09126
323.6186
323.14899
322.68228
322.21833
321.75699
321.29809
320.84147
320.38697
319.93443
319.48366
319.0345
318.58677
318.1403
317.69492
317.25045
316.8067
316.36352
315.92071
315.47811
315.03554
314.59283
314.1498
313.70628
313.2621
312.8171
312.37109
311.92393
311.47543
311.02544
310.5738
310.12035
309.66493
309.2074
308.74761
308.2854
307.82066
307.35323
306.88301
306.40987
305.93371
305.45443
304.97196
304.48621
303.99714
303.50471
303.00891
302.50972
335.97825
335.41395
334.85252
334.29421
333.73923
333.18777
332.64002
332.09612
331.55622
331.02042
330.48881
329.96147
329.43845
328.91978
328.40546
327.89549
327.38984
326.88848
326.39133
325.89834
325.40941
324.92443
324.44331
323.96592
323.49212
323.02178
322.55475
322.09088
321.62999
321.17194
320.71655
320.26365
319.81305
319.36459
318.91807
318.47333
318.03017
317.58841
317.14787
316.70835
316.26969
315.83169
315.39417
314.95694
314.51983
314.08266
313.64523
313.20739
312.76894
312.32972
311.88955
311.44825
311.00567
310.56164
310.11598
309.66855
309.21918
308.76772
308.31403
307.85796
307.39937
306.93814
306.47415
306.00727
305.53742
305.06449
304.58842
304.10912
303.62657
303.14071
302.65154
302.15905
335.41808
334.84789
334.28086
333.71725
333.15729
332.6012
332.04916
331.50135
330.9579
330.41894
329.88456
329.35484
328.82982
328.30954
327.79401
327.2832
326.7771
326.27564
325.77877
325.28639
324.79842
324.31474
323.83522
323.35974
322.88814
322.42029
321.956
321.49513
321.0375
320.58292
320.13123
319.68222
319.23572
318.79154
318.34948
317.90934
317.47095
317.0341
316.59859
316.16424
315.73086
315.29824
314.8662
314.43454
314.00308
313.57164
313.14001
312.70803
312.2755
311.84224
311.40808
310.97285
310.53636
310.09845
309.65895
309.2177
308.77453
308.32931
307.88187
307.43207
306.97978
306.52487
306.06722
305.60672
305.14326
304.67677
304.20716
303.73438
303.25837
302.77911
302.29657
301.81077
334.85354
334.27717
333.70428
333.13513
332.56998
332.00906
331.45257
330.90069
330.35358
329.81136
329.27413
328.74198
328.21495
327.69306
327.17633
326.66473
326.15822
325.65675
325.16024
324.66859
324.1817
323.69944
323.22168
322.74826
322.27904
321.81384
321.35249
320.89481
320.44061
319.98971
319.54191
319.09701
318.65481
318.21511
317.77771
317.3424
316.90898
316.47724
316.04699
315.61801
315.1901
314.76307
314.33672
313.91083
313.48523
313.05971
312.63408
312.20815
311.78173
311.35463
310.92668
310.49768
310.06746
309.63585
309.20268
308.76778
308.33099
307.89215
307.45111
307.00773
306.56187
306.11341
305.66222
305.20819
304.75123
304.29126
303.82818
303.36196
302.89253
302.41988
301.94398
301.46485
334.28432
333.70148
333.12243
332.54748
331.97691
331.41095
330.84982
330.29372
329.74282
329.19724
328.6571
328.12246
327.59339
327.0699
326.55199
326.03964
325.53281
325.03141
324.53536
324.04457
323.55889
323.0782
322.60235
322.13118
321.6645
321.20215
320.74392
320.28964
319.83909
319.39207
318.94838
318.5078
318.07012
317.63513
317.20261
316.77234
316.34411
315.91771
315.49292
315.06953
314.64733
314.2261
313.80564
313.38575
312.96621
312.54682
312.12739
311.70772
311.28761
310.86687
310.4453
310.02273
309.59897
309.17385
308.74718
308.3188
307.88854
307.45624
307.02176
306.58494
306.14565
305.70376
305.25914
304.8117
304.36133
303.90794
303.45147
302.99185
302.52904
302.06301
301.59375
301.12127
333.71008
333.12043
332.53493
331.9539
331.37764
330.80642
330.24046
329.67998
329.12515
328.57611
328.03297
327.49581
326.96468
326.4396
325.92055
325.40751
324.90042
324.3992
323.90374
323.41393
322.92962
322.45067
321.97691
321.50816
321.04423
320.58492
320.13004
319.67937
319.23269
318.78978
318.35042
317.9144
317.48147
317.05141
316.624
316.19901
315.77621
315.35538
314.93628
314.51871
314.10243
313.68723
313.2729
312.85921
312.44595
312.03291
311.61989
311.20669
310.79309
310.3789
309.96393
309.54799
309.13088
308.71242
308.29243
307.87074
307.44719
307.0216
306.59382
306.16371
305.73112
305.29593
304.85801
304.41725
303.97356
303.52684
303.07703
302.62406
302.1679
301.70852
301.2459
300.78005
333.13047
332.53365
331.94136
331.35395
330.77174
330.19501
329.62402
329.05899
328.50009
327.94748
327.40127
326.86154
326.32834
325.80167
325.28153
324.76787
324.26062
323.75968
323.26494
322.77627
322.2935
321.81647
321.34499
320.87887
320.4179
319.96187
319.51056
319.06373
318.62115
318.1826
317.74782
317.31659
316.88866
316.46379
316.04174
315.62227
315.20514
314.79011
314.37696
313.96544
313.55532
313.14639
312.7384
312.33114
311.92439
311.51793
311.11155
310.70502
310.29815
309.89073
309.48256
309.07343
308.66317
308.25157
307.83845
307.42363
307.00695
306.58824
306.16732
305.74407
305.31832
304.88996
304.45884
304.02487
303.58795
303.14798
302.70489
302.25863
301.80915
301.35642
300.90044
300.4412
332.54509
331.94072
331.34129
330.74717
330.15871
329.57623
328.99998
328.4302
327.8671
327.31081
326.76145
326.21912
325.68383
325.15561
324.63443
324.12023
323.61293
323.11241
322.61854
322.13117
321.65012
321.17521
320.70624
320.24297
319.7852
319.33268
318.88518
318.44245
318.00423
317.57029
317.14036
316.71418
316.29151
315.87208
315.45565
315.04196
314.63075
314.22179
313.81482
313.40961
313.0059
312.60347
312.20208
311.8015
311.40149
311.00183
310.6023
310.20268
309.80276
309.40232
309.00116
308.59906
308.19584
307.79129
307.38523
306.97748
306.56785
306.15617
305.74229
305.32604
304.90727
304.48586
304.06168
303.6346
303.20454
302.7714
302.3351
301.89558
301.45281
301.00676
300.55741
300.10477
331.95353
331.34118
330.73422
330.13305
329.53804
328.94952
328.36778
327.79307
327.2256
326.66552
326.11295
325.56797
325.03061
324.50088
323.97872
323.46408
322.95684
322.45689
321.96407
321.47819
320.99908
320.52651
320.06027
319.6001
319.14578
318.69704
318.25362
317.81525
317.38168
316.95262
316.5278
316.10696
315.68982
315.27611
314.86557
314.45793
314.05292
313.65029
313.24977
312.85112
312.45409
312.05841
311.66386
311.2702
310.87717
310.48456
310.09212
309.69965
309.3069
308.91366
308.51972
308.12487
307.7289
307.33161
306.93281
306.5323
306.1299
305.72544
305.31874
304.90966
304.49802
304.0837
303.66656
303.24649
302.82339
302.39715
301.9677
301.53499
301.09896
300.65959
300.21687
299.7708
331.35533
330.73457
330.11966
329.51105
328.90914
328.3143
327.72682
327.14698
326.57499
326.01101
325.45515
324.90751
324.36808
323.83688
323.31384
322.79887
322.29185
321.79263
321.30105
320.81689
320.33993
319.86995
319.4067
318.94991
318.49931
318.05462
317.61557
317.18187
316.75322
316.32934
315.90993
315.49472
315.0834
314.67571
314.27134
313.87004
313.4715
313.07548
312.68169
312.28988
311.89978
311.51113
311.12368
310.73719
310.3514
309.96608
309.58098
309.19588
308.81054
308.42474
308.03825
307.65087
307.26236
306.87254
306.48119
306.08813
305.69315
305.29608
304.89675
304.49498
304.09062
303.68353
303.27357
302.86061
302.44456
302.02531
301.60278
301.17691
300.74766
300.31499
299.8789
299.43939
330.75002
330.12034
329.49703
328.88058
328.27142
327.66993
327.07646
326.49127
325.9146
325.3466
324.78741
324.23707
323.69562
323.16301
322.63918
322.12402
321.61739
321.11911
320.62898
320.14677
319.67223
319.20511
318.74513
318.292
317.84543
317.40511
316.97074
316.542
316.1186
315.70021
315.28653
314.87726
314.47208
314.0707
313.67281
313.27814
312.88638
312.49726
312.11048
311.72579
311.3429
310.96155
310.58147
310.20242
309.82413
309.44635
309.06885
308.69137
308.31368
307.93555
307.55675
307.17706
306.79624
306.4141
306.03042
305.645
305.25763
304.86814
304.47635
304.08207
303.68514
303.28542
302.88276
302.47704
302.06814
301.65596
301.24042
300.82145
300.39901
299.97305
299.54358
299.1106
330.13707
329.49794
328.86574
328.241
327.62419
327.01574
326.41599
325.82524
325.24372
324.67161
324.10901
323.55598
323.01253
322.47861
321.95413
321.43894
320.93289
320.43576
319.94733
319.46734
318.99551
318.53155
318.07516
317.62601
317.18379
316.74817
316.31881
315.89538
315.47756
315.065
314.65738
314.25437
313.85565
313.46091
313.06982
312.6821
312.29742
311.9155
311.53604
311.15875
310.78337
310.4096
310.03718
309.66584
309.29531
308.92535
308.55569
308.1861
307.81631
307.4461
307.07522
306.70345
306.33056
305.95632
305.58052
305.20295
304.82341
304.44169
304.05761
303.67099
303.28166
302.88946
302.49424
302.09587
301.69422
301.28921
300.88072
300.46871
300.05311
299.63389
299.21104
298.78456
329.51592
328.86674
328.22512
327.59162
326.96675
326.35097
325.74465
325.14811
324.56158
323.98524
323.4192
322.86349
322.31811
321.78299
321.258
320.74298
320.23773
319.74202
319.25557
318.77809
318.30929
317.84882
317.39636
316.95155
316.51403
316.08347
315.65948
315.24173
314.82984
314.42346
314.02225
313.62586
313.23394
312.84618
312.46223
312.08177
311.7045
311.3301
310.95826
310.5887
310.22111
309.85522
309.49074
309.12739
308.76492
308.40304
308.0415
307.68005
307.31843
306.95639
306.59368
306.23008
305.86534
305.49924
305.13155
304.76205
304.39053
304.01678
303.64061
303.26183
302.88027
302.49574
302.1081
301.71721
301.32294
300.92517
300.52383
300.11882
299.7101
299.29762
298.88139
298.46139
328.88593
328.22608
327.57445
326.93167
326.29829
325.67481
325.06161
324.45904
323.86734
323.28668
322.71716
322.15881
321.61159
321.0754
320.55009
320.03546
319.53128
319.03726
318.55311
318.0785
317.61307
317.15646
316.7083
316.26821
315.83579
315.41067
314.99245
314.58074
314.17517
313.77536
313.38093
312.99153
312.60678
312.22635
311.84988
311.47704
311.10751
310.74095
310.37706
310.01553
309.65606
309.29834
308.9421
308.58705
308.23291
307.8794
307.52626
307.17322
306.82003
306.46642
306.11215
305.75697
305.40063
305.04291
304.68355
304.32235
303.95907
303.59351
303.22545
302.8547
302.48107
302.10438
301.72447
301.34119
300.95441
300.564
300.16987
299.77193
299.37012
298.96441
298.55479
298.14125
328.24645
327.57522
326.91295
326.26033
325.61796
324.98636
324.36596
323.75712
323.16009
322.57502
322.00202
321.44107
320.89212
320.35504
319.82964
319.31567
318.81285
318.32087
317.83938
317.368
316.90634
316.45399
316.01055
315.57559
315.14869
314.72943
314.31739
313.91216
313.51332
313.12047
312.73322
312.35119
311.97399
311.60126
311.23264
310.86778
310.50633
310.14797
309.79236
309.43919
309.08815
308.73893
308.39123
308.04477
307.69926
307.35441
307.00995
306.66561
306.32112
305.97622
305.63065
305.28414
304.93647
304.58736
304.23659
303.88392
303.52912
303.17195
302.81221
302.44969
302.08418
301.71551
301.34349
300.96797
300.58879
300.20584
299.81901
299.4282
299.03336
298.63443
298.23141
297.82429
327.59673
326.91336
326.23976
325.57668
324.92478
324.28464
323.65671
323.04136
322.43883
321.8493
321.27281
320.70936
320.15884
319.62108
319.09585
318.58284
318.08174
317.59218
317.11375
316.64602
316.18857
315.74094
315.30267
314.8733
314.45237
314.03943
313.63402
313.23569
312.84402
312.45856
312.07891
311.70466
311.33541
310.97078
310.61039
310.25387
309.90087
309.55105
309.20407
308.8596
308.51732
308.17692
307.83809
307.50053
307.16395
306.82806
306.49258
306.15722
305.82172
305.4858
305.1492
304.81165
304.47289
304.13267
303.79074
303.44684
303.10075
302.75221
302.40101
302.04693
301.68974
301.32927
300.96531
300.59769
300.22626
299.85089
299.47144
299.08784
298.7
298.30787
297.91145
297.51073
326.93597
326.2396
325.5539
324.8797
324.21772
323.56858
322.93276
322.31065
321.70249
321.10843
320.52852
319.96269
319.41079
318.87262
318.34787
317.8362
317.33722
316.8505
316.37558
315.91199
315.45924
315.01681
314.58421
314.16093
313.74647
313.34033
312.94202
312.55108
312.16703
311.78942
311.41781
311.05177
310.69089
310.33476
309.98299
309.63521
309.29104
308.95013
308.61213
308.27671
307.94353
307.61228
307.28264
306.9543
306.62697
306.30035
305.97414
305.64807
305.32185
304.9952
304.66785
304.33953
304.00997
303.6789
303.34606
303.0112
302.67406
302.3344
301.99197
301.64654
301.2979
300.94581
300.59009
300.23054
299.86701
299.49933
299.12737
298.75105
298.37026
297.98496
297.59513
297.20077
326.26328
325.55297
324.85433
324.16828
323.49561
322.83698
322.19291
321.56379
320.94987
320.35128
319.76801
319.19997
318.64696
318.10868
317.5848
317.07489
316.57849
316.09511
315.62423
315.16531
314.71779
314.28111
313.85472
313.43807
313.03061
312.6318
312.24112
311.85806
311.48212
311.11284
310.74973
310.39235
310.04028
309.69307
309.35034
309.01169
308.67674
308.34512
308.01648
307.69046
307.36673
307.04497
306.72486
306.40607
306.08831
305.77126
305.45465
305.13816
304.82152
304.50444
304.18664
303.86783
303.54775
303.22611
302.90264
302.57708
302.24917
301.91863
301.58522
301.24869
300.9088
300.56531
300.21803
299.86673
299.51124
299.15139
298.78704
298.41807
298.04439
297.66595
297.2827
296.89467
325.57766
324.85238
324.13988
323.44118
322.75715
322.08851
321.43582
320.79946
320.17968
319.57657
318.99008
318.42007
317.86625
317.32826
316.80569
316.29804
315.80476
315.32529
314.85903
314.40536
313.96367
313.53335
313.11377
312.70433
312.30444
311.91353
311.53102
311.15638
310.78908
310.42862
310.07451
309.72627
309.38345
309.04562
308.71235
308.38325
308.05791
307.73597
307.41705
307.10081
306.7869
306.47498
306.16473
305.85582
305.54796
305.24082
304.93411
304.62752
304.32077
304.01356
303.70561
303.39661
303.0863
302.77438
302.46057
302.1446
301.82618
301.50503
301.1809
300.85352
300.52262
300.18797
299.84932
299.50647
299.1592
298.80733
298.4507
298.08918
297.72268
297.35111
296.97445
296.5927
324.87803
324.13661
323.40922
322.69699
322.0009
321.32171
320.66001
320.01619
319.39048
318.78292
318.19341
317.62172
317.06749
316.53027
316.00955
315.50473
315.01519
314.54026
314.07927
313.63153
313.19634
312.77302
312.3609
311.95932
311.56763
311.18521
310.81147
310.44582
310.0877
309.7366
309.39198
309.05337
308.72029
308.39228
308.06892
307.74979
307.43449
307.12262
306.81382
306.50773
306.20399
305.90227
305.60224
305.30356
305.00592
304.70902
304.41253
304.11617
303.81962
303.5226
303.2248
302.92593
302.62569
302.32379
302.01994
301.71384
301.40521
301.09374
300.77917
300.4612
300.13956
299.81398
299.48421
299.15
298.81114
298.46741
298.11864
297.76469
297.40542
297.04078
296.6707
296.29519
324.16316
323.40429
322.66087
321.93416
321.22523
320.53492
319.86383
319.21236
318.5807
317.96883
317.37656
316.80358
316.24943
315.71355
315.1953
314.694
314.2089
313.73925
313.28428
312.8432
312.41524
311.99966
311.5957
311.20266
310.81984
310.44657
310.08221
309.72615
309.3778
309.0366
308.70202
308.37355
308.05069
307.73299
307.41999
307.11127
306.80642
306.50504
306.20675
305.9112
305.61801
305.32685
305.03738
304.74928
304.46221
304.17587
303.88995
303.60413
303.31812
303.0316
302.74427
302.45584
302.16599
301.87442
301.58084
301.28493
300.98638
300.6849
300.38018
300.07191
299.75981
299.44357
299.12292
298.7976
298.46735
298.13195
297.79119
297.44492
297.09298
296.73529
296.37179
296.00249
323.43169
322.6539
321.89317
321.15092
320.42833
319.72629
319.04544
318.38617
317.74859
317.13262
316.53798
315.96421
315.41074
314.87687
314.36185
313.86485
313.38502
312.92147
312.47334
312.03975
311.61984
311.21278
310.81776
310.434
310.06077
309.69733
309.34302
308.99718
308.6592
308.3285
308.00451
307.68671
307.37459
307.06767
306.7655
306.46764
306.17367
305.8832
305.59583
305.31119
305.02894
304.74871
304.47017
304.19299
303.91684
303.64141
303.36638
303.09144
302.81628
302.5406
302.26407
301.9864
301.70727
301.42636
301.14337
300.85797
300.56984
300.27866
299.98411
299.68585
299.38358
299.07697
298.76573
298.44954
298.12814
297.80128