/*--------------------------------*- C++ -*----------------------------------*\
| =========                 |                                                 |
| \\      /  F ield         | OpenFOAM: The Open Source CFD Toolbox           |
|  \\    /   O peration     | Version:  v1606+                                |
|   \\  /    A nd           | Web:      www.OpenFOAM.com                      |
|    \\/     M anipulation  |                                                 |
\*---------------------------------------------------------------------------*/
FoamFile
{
    version     2.0;
    format      ascii;
    class       volScalarField;
    location    "0.01/unShaded";
    object      T;
}
// * * * * * * * * * * * * * * * * * * * * * * * * * * * * * * * * * * * * * //

dimensions      [0 0 0 1 0 0 0];

internalField   nonuniform List<scalar> 
24480
(
374.1016
375.88037
377.41686
378.79243
380.04962
381.2137
382.3012
383.32368
384.28969
385.20579
386.07715
386.90799
387.70177
388.46141
389.1894
389.88788
390.55872
391.20354
391.82379
392.42078
392.99564
393.54942
394.08307
394.59745
395.09333
395.57143
396.03242
396.47691
396.90545
397.31858
397.71678
398.10051
398.47018
398.8262
399.16894
399.49875
399.81596
400.12088
400.41381
400.69502
400.96477
401.22333
401.47091
401.70776
401.93408
402.15007
402.35594
402.55187
402.73804
402.91461
403.08176
403.23964
403.38839
403.52816
403.6591
403.78133
403.89498
404.00018
404.09704
404.18568
404.26621
404.33875
404.40338
404.46021
404.50935
404.55087
404.58489
404.61147
404.63072
404.64271
404.64752
404.64523
404.63593
404.61968
404.59656
404.56664
404.52999
404.48667
404.43676
404.38032
404.31741
404.24809
404.17243
404.09048
404.00231
403.90797
403.80751
403.701
403.58848
403.47002
403.34566
403.21545
403.07946
402.93771
402.79028
402.6372
402.47853
402.31431
402.14458
401.96941
401.78882
401.60287
401.41161
401.21507
401.01331
400.80635
400.59426
400.37707
400.15482
399.92756
399.69532
399.45816
399.2161
398.96919
398.71748
398.46099
398.19978
397.93387
397.66332
397.38815
397.1084
396.82412
396.53534
396.24209
395.94442
395.64237
395.33595
395.02523
394.71022
394.39096
394.06749
393.73984
393.40805
393.07215
392.73216
392.38814
392.04009
391.68806
391.33208
390.97218
390.60838
390.24071
389.86921
389.4939
389.11481
388.73196
388.34538
387.95509
387.56113
387.1635
386.76223
386.35735
385.94888
385.53683
385.12122
384.70207
384.2794
383.85322
383.42354
382.99039
382.55377
382.11369
381.67017
381.22321
380.77281
380.31899
379.86175
379.40109
373.85935
375.45599
376.91112
378.24414
379.47606
380.62363
381.69955
382.71349
383.67294
384.58385
385.45101
386.27837
387.06924
387.8264
388.55225
389.24886
389.91806
390.56143
391.1804
391.77623
392.35005
392.90289
393.43568
393.94927
394.44443
394.92188
395.38226
395.82618
396.2542
396.66685
397.06459
397.44789
397.81717
398.17281
398.5152
398.84468
399.16158
399.46621
399.75886
400.0398
400.30931
400.56763
400.81499
401.05162
401.27773
401.49353
401.69922
401.89497
402.08096
402.25738
402.42437
402.58209
402.7307
402.87034
403.00114
403.12324
403.23677
403.34185
403.43859
403.52712
403.60755
403.67998
403.74451
403.80125
403.85029
403.89172
403.92565
403.95215
403.97131
403.98322
403.98795
403.98559
403.97621
403.95989
403.93669
403.9067
403.86998
403.8266
403.77663
403.72012
403.65715
403.58777
403.51205
403.43004
403.34181
403.24741
403.1469
403.04033
402.92777
402.80925
402.68484
402.55458
402.41853
402.27674
402.12926
401.97613
401.81741
401.65314
401.48337
401.30815
401.12752
400.94152
400.75022
400.55363
400.35182
400.14483
399.93269
399.71546
399.49317
399.26586
399.03359
398.79638
398.55428
398.30734
398.05558
397.79906
397.5378
397.27186
397.00126
396.72605
396.44627
396.16195
395.87313
395.57985
395.28215
394.98005
394.67361
394.36284
394.0478
393.72851
393.405
393.07732
392.7455
392.40956
392.06955
391.72548
391.37741
391.02535
390.66934
390.3094
389.94558
389.57788
389.20635
388.83102
388.4519
388.06902
387.68242
387.29211
386.89812
386.50047
386.09918
385.69428
385.28579
384.87372
384.45809
384.03892
383.61624
383.19004
382.76036
382.32719
381.89056
381.45047
381.00694
380.55997
380.10957
379.65575
379.1985
378.73784
373.73919
375.1731
376.52749
377.79695
378.98684
380.1052
381.15988
382.15778
383.10474
384.00566
384.86467
385.68526
386.47041
387.22269
387.94432
388.63727
389.30323
389.94374
390.56015
391.15369
391.72544
392.27641
392.8075
393.31953
393.81326
394.28939
394.74856
395.19135
395.61833
396.03
396.42684
396.8093
397.17778
397.53269
397.87438
398.2032
398.51948
398.82352
399.11561
399.39603
399.66504
399.92288
400.16979
400.40599
400.6317
400.84711
401.05242
401.24782
401.43347
401.60956
401.77624
401.93366
402.08198
402.22134
402.35188
402.47372
402.587
402.69184
402.78836
402.87667
402.95688
403.0291
403.09343
403.14998
403.19883
403.24008
403.27383
403.30016
403.31915
403.3309
403.33547
403.33296
403.32343
403.30696
403.28363
403.2535
403.21664
403.17313
403.12302
403.06639
403.00329
402.93379
402.85795
402.77583
402.68748
402.59297
402.49235
402.38567
402.273
402.15437
402.02986
401.8995
401.76335
401.62146
401.47388
401.32065
401.16184
400.99747
400.82761
400.6523
400.47157
400.28549
400.09409
399.89742
399.69553
399.48844
399.27622
399.0589
398.83653
398.60914
398.37678
398.13949
397.89732
397.65029
397.39845
397.14185
396.88052
396.61449
396.34382
396.06854
395.78868
395.50428
395.21539
394.92204
394.62426
394.32209
394.01557
393.70474
393.38962
393.07026
392.74669
392.41894
392.08705
391.75105
391.41097
391.06685
390.71871
390.36659
390.01052
389.65052
389.28664
388.91889
388.54731
388.17192
387.79274
387.40982
387.02317
386.63281
386.23877
385.84108
385.43975
385.03481
384.62627
384.21416
383.7985
383.3793
382.95658
382.53036
382.10065
381.66746
381.23081
380.7907
380.34715
379.90016
379.44975
378.99592
378.53867
378.07801
373.66347
374.96975
376.22879
377.42933
378.56916
379.65044
380.67699
381.65301
382.58257
383.46939
384.31675
385.12759
385.90446
386.64962
387.3651
388.05264
388.71385
389.35014
389.96278
390.55292
391.12162
391.66981
392.19836
392.70808
393.19969
393.67386
394.13122
394.57235
394.99777
395.408
395.80349
396.18468
396.55198
396.90577
397.24642
397.57426
397.88961
398.19277
398.48404
398.76367
399.03193
399.28907
399.5353
399.77086
399.99596
400.21079
400.41554
400.61041
400.79555
400.97115
401.13736
401.29434
401.44223
401.58117
401.71131
401.83277
401.94568
402.05017
402.14634
402.23432
402.31421
402.38612
402.45015
402.5064
402.55497
402.59595
402.62943
402.6555
402.67425
402.68575
402.69009
402.68734
402.67759
402.6609
402.63735
402.60702
402.56996
402.52624
402.47594
402.41912
402.35584
402.28615
402.21013
402.12784
402.03932
401.94464
401.84385
401.73701
401.62417
401.50539
401.38072
401.25021
401.11391
400.97187
400.82414
400.67077
400.51181
400.34731
400.17731
400.00185
399.82099
399.63478
399.44324
399.24644
399.04441
398.8372
398.62485
398.40741
398.1849
397.95739
397.72491
397.4875
397.2452
396.99805
396.74609
396.48937
396.22792
395.96178
395.69099
395.41559
395.13562
394.85111
394.56211
394.26864
393.97076
393.66848
393.36186
393.05092
392.7357
392.41623
392.09256
391.76471
391.43272
391.09662
390.75644
390.41222
390.06399
389.71178
389.35562
388.99554
388.63156
388.26373
387.89206
387.51659
387.13734
386.75434
386.36761
385.97718
385.58308
385.18532
384.78392
384.37892
383.97033
383.55816
383.14245
382.7232
382.30044
381.87417
381.44442
381.01119
380.5745
380.13437
379.69079
379.24379
378.79336
378.33951
377.88225
377.42158
373.60843
374.81361
375.98861
377.1224
378.21003
379.25042
380.24462
381.1947
382.10316
382.97256
383.80536
384.60387
385.3702
386.10626
386.81379
387.49436
388.1494
388.78019
389.3879
389.97361
390.5383
391.08284
391.60807
392.11474
392.60355
393.07515
393.53012
393.96904
394.39241
394.80072
395.19442
395.57395
395.93968
396.292
396.63127
396.9578
397.27192
397.57393
397.86409
398.14268
398.40996
398.66615
398.91149
399.1462
399.37049
399.58454
399.78856
399.98271
400.16718
400.34213
400.50772
400.6641
400.81142
400.94981
401.07942
401.20037
401.31279
401.4168
401.51251
401.60005
401.67951
401.75101
401.81464
401.87051
401.9187
401.95932
401.99245
402.01818
402.03659
402.04776
402.05179
402.04874
402.03868
402.0217
401.99787
401.96726
401.92993
401.88595
401.83539
401.77831
401.71478
401.64485
401.5686
401.48606
401.39732
401.30241
401.2014
401.09434
400.98129
400.8623
400.73742
400.60671
400.47021
400.32797
400.18004
400.02648
399.86733
399.70264
399.53245
399.35681
399.17577
398.98937
398.79766
398.60068
398.39848
398.1911
397.97858
397.76096
397.53829
397.31061
397.07796
396.84039
396.59792
396.35062
396.0985
395.84162
395.58001
395.31372
395.04277
394.76722
394.4871
394.20244
393.91329
393.61967
393.32164
393.01922
392.71245
392.40137
392.08601
391.76641
391.4426
391.11462
390.78249
390.44626
390.10596
389.76161
389.41325
389.06092
388.70464
388.34444
387.98035
387.6124
387.24063
386.86505
386.48569
386.10259
385.71577
385.32524
384.93104
384.53319
384.13171
383.72663
383.31795
382.90572
382.48993
382.07062
381.64779
381.22146
380.79166
380.35838
379.92165
379.48148
379.03787
378.59083
378.14038
377.68651
377.22924
376.76856
373.56506
374.68767
375.78963
376.86163
377.89815
378.8966
379.85636
380.77801
381.66281
382.51233
383.32827
384.11235
384.86621
385.59143
386.28944
386.96162
387.60919
388.23331
388.83503
389.41533
389.97511
390.51519
391.03634
391.53927
392.02464
392.49305
392.94509
393.38127
393.80211
394.20805
394.59955
394.977
395.34079
395.6913
396.02884
396.35376
396.66636
396.96692
397.25572
397.53301
397.79906
398.05408
398.29832
398.53197
398.75524
398.96833
399.17143
399.3647
399.54833
399.72247
399.88729
400.04292
400.18953
400.32724
400.45618
400.5765
400.6883
400.79172
400.88687
400.97385
401.05279
401.12377
401.1869
401.24228
401.29001
401.33018
401.36286
401.38816
401.40616
401.41693
401.42056
401.41713
401.4067
401.38936
401.36517
401.33421
401.29654
401.25223
401.20135
401.14396
401.08012
401.00989
400.93333
400.85051
400.76147
400.66629
400.565
400.45767
400.34436
400.2251
400.09996
399.96899
399.83224
399.68975
399.54159
399.38778
399.22839
399.06346
398.89304
398.71718
398.53591
398.34929
398.15735
397.96015
397.75773
397.55013
397.3374
397.11957
396.89669
396.6688
396.43595
396.19816
395.9555
395.70799
395.45567
395.1986
394.93679
394.6703
394.39917
394.12342
393.84311
393.55826
393.26892
392.97513
392.67691
392.37431
392.06736
391.75611
391.44057
391.1208
390.79682
390.46867
390.13638
389.79998
389.45951
389.11501
388.7665
388.41401
388.05758
387.69723
387.333
386.96491
386.59299
386.21728
385.83779
385.45456
385.06761
384.67697
384.28265
383.88469
383.48311
383.07792
382.66915
382.25682
381.84094
381.42155
380.99864
380.57224
380.14237
379.70903
379.27225
378.83202
378.38837
377.94129
377.49081
377.03692
376.57963
376.11894
373.52922
374.58238
375.62062
376.63634
377.62434
378.58147
379.50621
380.39819
381.25774
382.08567
382.88304
383.65103
384.39088
385.10379
385.79094
386.45347
387.09243
387.70882
388.30358
388.87758
389.43162
389.96647
390.48283
390.98136
391.46267
391.92734
392.3759
392.80886
393.22669
393.62984
394.01871
394.39371
394.7552
395.10354
395.43905
395.76205
396.07283
396.37167
396.65884
396.9346
397.19918
397.45281
397.69572
397.92811
398.15018
398.36212
398.56412
398.75634
398.93897
399.11214
399.27603
399.43078
399.57653
399.71342
399.84158
399.96113
400.07221
400.17492
400.26939
400.35571
400.43401
400.50437
400.56691
400.62172
400.66889
400.70851
400.74067
400.76546
400.78295
400.79324
400.7964
400.79251
400.78164
400.76386
400.73925
400.70787
400.6698
400.6251
400.57383
400.51605
400.45184
400.38125
400.30434
400.22116
400.13179
400.03626
399.93465
399.82699
399.71335
399.59378
399.46834
399.33706
399.20001
399.05722
398.90876
398.75467
398.59499
398.42978
398.25908
398.08294
397.9014
397.71451
397.52231
397.32484
397.12216
396.9143
396.70131
396.48323
396.26009
396.03196
395.79885
395.56083
395.31792
395.07017
394.81761
394.5603
394.29826
394.03153
393.76017
393.48419
393.20365
392.91858
392.62902
392.335
392.03657
391.73375
391.42659
391.11512
390.79937
390.47939
390.15521
389.82685
389.49436
389.15777
388.81711
388.47241
388.12371
387.77104
387.41443
387.0539
386.6895
386.32124
385.94916
385.57328
385.19364
384.81026
384.42316
384.03237
383.63791
383.23982
382.8381
382.43279
382.0239
381.61146
381.19548
380.77598
380.35298
379.9265
379.49654
379.06313
378.62628
378.18599
377.74229
377.29517
376.84465
376.39073
375.93342
375.47272
373.49864
374.49201
375.47411
376.43879
377.38139
378.29872
379.18884
380.05078
380.88428
381.68957
382.46719
383.21787
383.94247
384.6419
385.31707
385.96889
386.59824
387.20597
387.7929
388.35977
388.90733
389.43624
389.94715
390.44066
390.91734
391.37773
391.82231
392.25158
392.66596
393.06589
393.45175
393.82393
394.18277
394.52861
394.86177
395.18255
395.49123
395.78809
396.07339
396.34736
396.61024
396.86227
397.10364
397.33457
397.55525
397.76586
397.96658
398.15759
398.33904
398.5111
398.67392
398.82764
398.9724
399.10834
399.23558
399.35425
399.46448
399.56637
399.66004
399.7456
399.82316
399.89281
399.95465
400.00879
400.05531
400.0943
400.12584
400.15004
400.16696
400.17669
400.1793
400.17487
400.16348
400.1452
400.12009
400.08823
400.04969
400.00452
399.9528
399.89459
399.82994
399.75893
399.6816
399.59802
399.50825
399.41233
399.31033
399.20229
399.08828
398.96835
398.84254
398.7109
398.5735
398.43037
398.28157
398.12714
397.96713
397.80159
397.63056
397.4541
397.27224
397.08504
396.89252
396.69475
396.49176
396.2836
396.07031
395.85193
395.62851
395.40008
395.16669
394.92837
394.68518
394.43715
394.18431
393.92672
393.66441
393.39741
393.12577
392.84953
392.56872
392.28339
391.99357
391.69929
391.4006
391.09753
390.79012
390.4784
390.16241
389.84219
389.51776
389.18917
388.85645
388.51963
388.17874
387.83382
387.4849
387.13202
386.77519
386.41446
386.04985
385.68139
385.30912
384.93305
384.55323
384.16966
383.78239
383.39143
382.99682
382.59856
382.1967
381.79124
381.38221
380.96964
380.55353
380.13392
379.71081
379.28422
378.85417
378.42067
377.98374
377.54338
377.09962
376.65245
376.20188
375.74793
375.29059
374.82988
373.47197
374.4129
375.34503
376.26332
377.16371
378.04317
378.89964
379.73181
380.53904
381.32115
382.07827
382.81079
383.51925
384.20427
384.86654
385.50677
386.12567
386.72394
387.30226
387.86129
388.40167
388.92401
389.42887
389.9168
390.38831
390.84391
391.28405
391.70917
392.11969
392.516
392.89848
393.26748
393.62334
393.96637
394.29687
394.61515
394.92146
395.21608
395.49925
395.7712
396.03217
396.28237
396.52201
396.75128
396.97038
397.17948
397.37876
397.56838
397.74852
397.91931
398.08091
398.23346
398.37709
398.51195
398.63815
398.75582
398.86508
398.96603
399.05881
399.1435
399.22021
399.28905
399.35011
399.40348
399.44925
399.48752
399.51838
399.54189
399.55816
399.56724
399.56923
399.5642
399.55221
399.53335
399.50769
399.47528
399.4362
399.39051
399.33827
399.27955
399.21442
399.14292
399.06512
398.98108
398.89084
398.79448
398.69204
398.58357
398.46914
398.34878
398.22256
398.09052
397.95272
397.80919
397.66
397.50519
397.3448
397.17888
397.00749
396.83066
396.64843
396.46087
396.268
396.06988
395.86654
395.65804
395.4444
395.22568
395.00192
394.77316
394.53944
394.3008
394.05728
393.80893
393.55577
393.29786
393.03524
392.76793
392.49598
392.21944
391.93832
391.65269
391.36257
391.068
390.76901
390.46565
390.15796
389.84595
389.52969
389.20918
388.88449
388.55563
388.22264
387.88555
387.54441
387.19923
386.85006
386.49693
386.13986
385.77889
385.41405
385.04537
384.67287
384.29659
383.91655
383.53278
383.14531
382.75416
382.35935
381.96092
381.55888
381.15326
380.74407
380.33135
379.9151
379.49535
379.07211
378.64541
378.21525
377.78165
377.34463
376.90419
376.46035
376.01312
375.5625
375.10851
374.65115
374.19042
373.44833
374.34258
375.22978
376.10574
376.96696
377.81064
378.63472
379.43779
380.21893
380.9777
381.71395
382.42778
383.11946
383.7894
384.43806
385.06599
385.67373
386.26184
386.8309
387.38146
387.91407
388.42925
388.92751
389.40934
389.87521
390.32555
390.76081
391.18137
391.58763
391.97995
392.35869
392.72418
393.07673
393.41664
393.74421
394.05971
394.36339
394.65552
394.93633
395.20604
395.46487
395.71304
395.95074
396.17817
396.3955
396.60292
396.80059
396.98867
397.16733
397.3367
397.49694
397.64818
397.79056
397.92421
398.04925
398.1658
398.27397
398.37389
398.46565
398.54937
398.62514
398.69307
398.75324
398.80576
398.85071
398.88817
398.91825
398.941
398.95653
398.9649
398.96619
398.96047
398.94783
398.92832
398.90202
398.86899
398.82931
398.78303
398.73022
398.67094
398.60525
398.53321
398.45488
398.37032
398.27958
398.18271
398.07977
397.97082
397.85591
397.73509
397.6084
397.47591
397.33765
397.19368
397.04405
396.88881
396.72799
396.56166
396.38984
396.2126
396.02997
395.842
395.64874
395.45022
395.24649
395.0376
394.82358
394.60448
394.38034
394.1512
393.91711
393.6781
393.43422
393.1855
392.93199
392.67372
392.41074
392.14309
391.87079
391.5939
391.31245
391.02648
390.73602
390.44112
390.1418
389.83812
389.5301
389.21778
388.90119
388.58038
388.25537
387.92621
387.59292
387.25554
386.9141
386.56864
386.21919
385.86577
385.50843
385.1472
384.78209
384.41315
384.04041
383.66388
383.2836
382.8996
382.5119
382.12053
381.72552
381.32688
380.92465
380.51884
380.10947
379.69658
379.28017
378.86026
378.43688
378.01004
377.57976
377.14605
376.70893
376.2684
375.82448
375.37718
374.9265
374.47247
374.01507
373.55432
373.4271
374.27933
375.12577
375.96292
376.78773
377.59769
378.39083
379.16567
379.92121
380.65678
381.37205
382.0669
382.74142
383.39579
384.03033
384.64539
385.24141
385.81881
386.37805
386.91959
387.4439
387.95142
388.44259
388.91785
389.37762
389.82229
390.25225
390.66787
391.0695
391.45749
391.83215
392.19381
392.54275
392.87926
393.20362
393.51607
393.81688
394.10628
394.38449
394.65175
394.90824
395.15418
395.38975
395.61515
395.83055
396.03611
396.23201
396.41839
396.59542
396.76323
396.92197
397.07177
397.21277
397.34508
397.46884
397.58415
397.69113
397.78989
397.88055
397.96319
398.03792
398.10484
398.16404
398.21561
398.25964
398.29622
398.32543
398.34735
398.36205
398.36963
398.37015
398.36368
398.3503
398.33008
398.30308
398.26937
398.22902
398.18209
398.12864
398.06874
398.00244
397.9298
397.85088
397.76574
397.67443
397.57701
397.47353
397.36404
397.2486
397.12725
397.00005
396.86705
396.7283
396.58384
396.43372
396.278
396.11671
395.94991
395.77763
395.59993
395.41685
395.22843
395.03472
394.83577
394.6316
394.42228
394.20784
393.98831
393.76376
393.5342
393.2997
393.06028
392.81599
392.56687
392.31296
392.0543
391.79093
391.52288
391.2502
390.97293
390.6911
390.40475
390.11392
389.81864
389.51897
389.21492
388.90654
388.59386
388.27693
387.95577
387.63042
387.30091
386.96729
386.62958
386.28782
385.94204
385.59227
385.23855
384.8809
384.51937
384.15397
383.78475
383.41172
383.03492
382.65438
382.27012
381.88217
381.49056
381.09531
380.69645
380.29399
379.88797
379.47841
379.06532
378.64873
378.22866
377.80512
377.37813
376.94771
376.51387
376.07663
375.636
375.19198
374.74461
374.29387
373.83978
373.38234
372.92157
373.40783
374.22186
375.03105
375.83244
376.62337
377.40158
378.16523
378.91287
379.64344
380.35616
381.05056
381.72637
382.38351
383.02202
383.64206
384.24386
384.8277
385.39393
385.94289
386.47496
386.99051
387.48992
387.97358
388.44186
388.89513
389.33374
389.75803
390.16835
390.56502
390.94834
391.31863
391.67615
392.0212
392.35404
392.67492
392.98409
393.28178
393.56822
393.84363
394.10821
394.36216
394.60568
394.83894
395.06213
395.27542
395.47897
395.67294
395.85747
396.03272
396.19884
396.35594
396.50417
396.64366
396.77452
396.89687
397.01083
397.11651
397.21401
397.30345
397.38492
397.45851
397.52433
397.58246
397.633
397.67603
397.71164
397.7399
397.7609
397.77471
397.78142
397.78109
397.7738
397.75962
397.73861
397.71085
397.67639
397.63531
397.58767
397.53352
397.47293
397.40596
397.33267
397.2531
397.16733
397.0754
396.97737
396.87328
396.76321
396.64718
396.52527
396.39751
396.26395
396.12465
395.97965
395.829
395.67275
395.51094
395.34363
395.17084
394.99264
394.80906
394.62016
394.42596
394.22652
394.02188
393.81208
393.59717
393.37718
393.15217
392.92216
392.6872
392.44733
392.2026
391.95304
391.69869
391.43959
391.17578
390.90731
390.63421
390.35651
390.07426
389.7875
389.49626
389.20058
388.9005
388.59605
388.28727
387.97421
387.65688
387.33534
387.00961
386.67974
386.34575
386.00767
385.66555
385.31942
384.96931
384.61524
384.25726
383.8954
383.52968
383.16014
382.78681
382.40971
382.02887
381.64433
381.2561
380.86422
380.46871
380.0696
379.6669
379.26065
378.85087
378.43757
378.02078
377.60051
377.1768
376.74964
376.31907
375.88509
375.44772
375.00697
374.56286
374.11539
373.66458
373.21044
372.75296
372.29216
373.3902
374.16922
374.94414
375.71241
376.47171
377.22002
377.95563
378.67716
379.3835
380.07387
380.74766
381.40452
382.04423
382.66672
383.27203
383.86027
384.43162
384.98632
385.52463
386.04684
386.55325
387.04418
387.51995
387.98089
388.4273
388.8595
389.2778
389.68249
390.07388
390.45224
390.81785
391.17098
391.51187
391.84078
392.15794
392.46358
392.75793
393.0412
393.31359
393.5753
393.82652
394.06743
394.2982
394.51902
394.73003
394.93141
395.12329
395.30583
395.47917
395.64345
395.79879
395.94532
396.08317
396.21245
396.33329
396.44579
396.55006
396.6462
396.73432
396.81451
396.88688
396.9515
397.00848
397.0579
397.09984
397.13439
397.16163
397.18164
397.19448
397.20025
397.199
397.19081
397.17576
397.1539
397.12531
397.09004
397.04816
396.99974
396.94484
396.88351
396.81581
396.7418
396.66153
396.57507
396.48247
396.38377
396.27904
396.16832
396.05166
395.92913
395.80075
395.66659
395.5267
395.38111
395.22988
395.07306
394.91069
394.74281
394.56948
394.39073
394.20661
394.01716
393.82244
393.62248
393.41732
393.207
392.99158
392.77109
392.54556
392.31506
392.07961
391.83925
391.59403
391.34399
391.08916
390.82959
390.56531
390.29637
390.0228
389.74465
389.46194
389.17473
388.88304
388.58691
388.28639
387.98151
387.6723
387.35881
387.04106
386.7191
386.39296
386.06268
385.72828
385.38981
385.0473
384.70078
384.35029
383.99585
383.63751
383.27529
382.90922
382.53933
382.16566
381.78823
381.40707
381.02221
380.63369
380.24151
379.84572
379.44633
379.04337
378.63686
378.22684
377.81331
377.3963
376.97583
376.55191
376.12458
375.69383
375.2597
374.82219
374.38132
373.93709
373.48953
373.03864
372.58442
372.1269
371.66606
373.37395
374.12068
374.86388
375.60135
376.33105
377.05117
377.76013
378.45661
379.13956
379.80813
380.4617
381.09981
381.72217
382.32861
382.91906
383.49356
384.05219
384.5951
385.12246
385.63451
386.13147
386.6136
387.08117
387.53443
387.97367
388.39916
388.81116
389.20994
389.59577
389.96889
390.32957
390.67803
391.01452
391.33926
391.65247
391.95437
392.24517
392.52506
392.79423
393.05288
393.30118
393.53931
393.76743
393.9857
394.19429
394.39334
394.58299
394.7634
394.93469
395.09699
395.25044
395.39515
395.53124
395.65884
395.77805
395.88898
395.99173
396.08641
396.17312
396.25194
396.32298
396.38633
396.44206
396.49028
396.53105
396.56446
396.5906
396.60953
396.62133
396.62608
396.62385
396.6147
396.5987
396.57593
396.54644
396.51029
396.46756
396.41831
396.36258
396.30045
396.23196
396.15718
396.07617
395.98896
395.89563
395.79622
395.69078
395.57937
395.46203
395.33882
395.20979
395.07498
394.93444
394.78822
394.63636
394.47892
394.31593
394.14745
393.97352
393.79418
393.60948
393.41946
393.22416
393.02363
392.8179
392.60703
392.39106
392.17001
391.94395
391.71291
391.47692
391.23603
390.99029
390.73972
390.48437
390.22429
389.9595
389.69005
389.41598
389.13733
388.85413
388.56643
388.27425
387.97765
387.67665
387.37129
387.06162
386.74766
386.42946
386.10704
385.78046
385.44973
385.1149
384.776
384.43306
384.08612
383.73522
383.38038
383.02163
382.65902
382.29257
381.9223
381.54826
381.17048
380.78897
380.40377
380.01492
379.62242
379.22632
378.82663
378.42338
378.0166
377.60631
377.19253
376.77528
376.35458
375.93045
375.50292
375.07199
374.63769
374.20002
373.75901
373.31466
372.86699
372.41601
371.96172
371.50414
371.04327
373.35889
374.07565
374.78935
375.49807
376.19998
376.89347
377.57709
378.24961
378.90999
379.55741
380.1912
380.81086
381.41603
382.00648
382.58206
383.14272
383.68848
384.21941
384.73562
385.23727
385.72453
386.19759
386.65668
387.102
387.5338
387.9523
388.35774
388.75035
389.13036
389.498
389.85349
390.19706
390.52891
390.84926
391.15832
391.45627
391.74331
392.01963
392.2854
392.54081
392.78602
393.0212
393.2465
393.46208
393.66808
393.86466
394.05195
394.23008
394.39918
394.55939
394.71082
394.85359
394.98782
395.11362
395.23109
395.34035
395.44148
395.5346
395.61979
395.69716
395.76678
395.82876
395.88316
395.93009
395.96961
396.00181
396.02677
396.04455
396.05524
396.0589
396.05561
396.04543
396.02842
396.00467
395.97422
395.93714
395.89349
395.84334
395.78674
395.72374
395.65442
395.57881
395.49698
395.40898
395.31487
395.21469
395.10849
394.99634
394.87827
394.75434
394.6246
394.48908
394.34786
394.20095
394.04843
393.89032
393.72668
393.55755
393.38297
393.203
393.01767
392.82702
392.63111
392.42997
392.22364
392.01217
391.7956
391.57397
391.34732
391.11569
390.87913
390.63767
390.39136
390.14023
389.88433
389.62369
389.35835
389.08836
388.81375
388.53456
388.25083
387.96259
387.6699
387.37277
387.07126
386.7654
386.45522
386.14076
385.82206
385.49916
385.17209
384.84088
384.50558
384.16621
383.82282
383.47543
383.12408
382.7688
382.40963
382.04659
381.67972
381.30906
380.93462
380.55645
380.17456
379.789
379.39978
379.00694
378.6105
378.21049
377.80693
377.39985
376.98927
376.57521
376.15771
375.73676
375.3124
374.88465
374.45352
374.01903
373.5812
373.14004
372.69555
372.24777
371.79669
371.34232
370.88468
370.42377
373.34486
374.03368
374.71982
375.40158
376.07734
376.74564
377.40515
378.05473
378.6934
379.32031
379.93482
380.53639
381.12462
381.69921
382.25997
382.80679
383.33961
383.85844
384.36335
384.85442
385.33177
385.79556
386.24594
386.6831
387.10723
387.51851
387.91715
388.30335
388.67732
389.03925
389.38934
389.7278
390.05481
390.37057
390.67526
390.96907
391.25217
391.52474
391.78694
392.03894
392.28089
392.51296
392.73529
392.94802
393.15131
393.34527
393.53005
393.70578
393.87258
394.03057
394.17986
394.32058
394.45283
394.57672
394.69235
394.79983
394.89925
394.99071
395.0743
395.15011
395.21824
395.27875
395.33175
395.37731
395.4155
395.44641
395.47011
395.48667
395.49617
395.49868
395.49426
395.48298
395.4649
395.4401
395.40863
395.37055
395.32593
395.27482
395.21728
395.15337
395.08315
395.00666
394.92397
394.83512
394.74017
394.63917
394.53217
394.41922
394.30037
394.17567
394.04517
393.90891
393.76695
393.61932
393.46607
393.30725
393.14291
392.97309
392.79783
392.61717
392.43117
392.23986
392.04329
391.84149
391.63452
391.42241
391.2052
390.98294
390.75566
390.52342
390.28624
390.04417
389.79725
389.54552
389.28902
389.02779
388.76186
388.49129
388.21609
387.93633
387.65203
387.36323
387.06997
386.77229
386.47022
386.16381
385.85309
385.5381
385.21887
384.89544
384.56785
384.23614
383.90033
383.56046
383.21657
382.8687
382.51687
382.16112
381.80148
381.43799
381.07068
380.69958
380.32472
379.94612
379.56383
379.17787
378.78827
378.39506
377.99826
377.5979
377.194
376.7866
376.37571
375.96136
375.54357
375.12236
374.69775
374.26976
373.83842
373.40373
372.96571
372.52438
372.07975
371.63184
371.18065
370.72619
370.26848
369.80752
373.33173
373.99438
374.65467
375.31108
375.96216
376.60659
377.24315
377.87078
378.48854
379.09563
379.69139
380.27527
380.84684
381.40578
381.95184
382.48485
383.00472
383.51141
384.00491
384.48528
384.95259
385.40693
385.84844
386.27724
386.6935
387.09736
387.489
387.8686
388.23631
388.59233
388.93683
389.26998
389.59196
389.90294
390.20309
390.49258
390.77157
391.04022
391.29868
391.54711
391.78566
392.01447
392.23368
392.44342
392.64385
392.83507
393.01722
393.19042
393.35478
393.51043
393.65748
393.79603
393.9262
394.04807
394.16177
394.26737
394.36498
394.45469
394.53659
394.61076
394.67729
394.73627
394.78778
394.83188
394.86867
394.89821
394.92058
394.93586
394.9441
394.94538
394.93976
394.92732
394.90811
394.8822
394.84964
394.81051
394.76485
394.71273
394.6542
394.58932
394.51814
394.44072
394.3571
394.26736
394.17152
394.06965
393.9618
393.84801
393.72833
393.60281
393.4715
393.33445
393.1917
393.0433
392.88929
392.72972
392.56463
392.39407
392.21808
392.0367
391.84998
391.65796
391.46069
391.2582
391.05053
390.83774
390.61985
390.39692
390.16898
389.93607
389.69824
389.45552
389.20795
388.95558
388.69844
388.43658
388.17002
387.89882
387.62302
387.34264
387.05773
386.76832
386.47446
386.17619
385.87353
385.56654
385.25524
384.93968
384.61988
384.29589
383.96775
383.63548
383.29913
382.95873
382.61431
382.26592
381.91358
381.55733
381.19719
380.83322
380.46543
380.09386
379.71854
379.3395
378.95677
378.57039
378.18038
377.78676
377.38957
376.98884
376.58458
376.17683
375.76561
375.35094
374.93285
374.51135
374.08647
373.65824
373.22665
372.79175
372.35353
371.91202
371.46723
371.01918
370.56787
370.11332
369.65554
369.19453
373.31939
373.95745
374.59341
375.2259
375.85364
376.4754
377.09009
377.6967
378.29435
378.88228
379.45983
380.02645
380.5817
381.12522
381.65674
382.17605
382.68302
383.17755
383.65961
384.12921
384.58636
385.03114
385.46363
385.88393
386.29215
386.68843
387.0729
387.44571
387.80701
388.15694
388.49567
388.82334
389.14011
389.44615
389.74159
390.02659
390.30131
390.56588
390.82045
391.06516
391.30016
391.52557
391.74152
391.94815
392.14558
392.33394
392.51333
392.68388
392.84571
392.99891
393.1436
393.27988
393.40785
393.52762
393.63927
393.7429
393.83861
393.92648
394.0066
394.07904
394.14391
394.20127
394.2512
394.29378
394.32909
394.35719
394.37816
394.39207
394.39899
394.39898
394.3921
394.37843
394.35802
394.33094
394.29724
394.25699
394.21024
394.15704
394.09746
394.03156
393.95937
393.88096
393.79638
393.70568
393.60891
393.50612
393.39736
393.28268
393.16212
393.03574