/*--------------------------------*- C++ -*----------------------------------*\
| =========                 |                                                 |
| \\      /  F ield         | OpenFOAM: The Open Source CFD Toolbox           |
|  \\    /   O peration     | Version:  v1606+                                |
|   \\  /    A nd           | Web:      www.OpenFOAM.com                      |
|    \\/     M anipulation  |                                                 |
\*---------------------------------------------------------------------------*/
FoamFile
{
    version     2.0;
    format      ascii;
    class       volScalarField;
    location    "0.04/unShaded";
    object      T;
}
// * * * * * * * * * * * * * * * * * * * * * * * * * * * * * * * * * * * * * //

dimensions      [0 0 0 1 0 0 0];

internalField   nonuniform List<scalar> 
24480
(
374.10697
375.8965
377.44374
378.83006
380.09801
381.27284
382.3711
383.40433
384.3811
385.30795
386.19007
387.03166
387.8362
388.6066
389.34535
390.05459
390.73619
391.39177
392.02279
392.63054
393.21617
393.78072
394.32514
394.85029
395.35694
395.84582
396.31759
396.77285
397.21218
397.63609
398.04507
398.43959
398.82005
399.18686
399.54039
399.881
400.20901
400.52473
400.82846
401.12048
401.40104
401.67041
401.92881
402.17647
402.41361
402.64043
402.85713
403.06389
403.26089
403.44831
403.62629
403.79501
403.95461
404.10524
404.24703
404.38011
404.50462
404.62069
404.72842
404.82793
404.91934
405.00275
405.07826
405.14598
405.20601
405.25843
405.30333
405.34082
405.37097
405.39386
405.40958
405.41821
405.41982
405.41449
405.40229
405.38329
405.35756
405.32518
405.28619
405.24068
405.1887
405.13032
405.06559
404.99458
404.91735
404.83394
404.74442
404.64884
404.54726
404.43973
404.3263
404.20702
404.08195
403.95113
403.81461
403.67245
403.52468
403.37136
403.21253
403.04823
402.87852
402.70344
402.52303
402.33733
402.1464
401.95026
401.74896
401.54255
401.33107
401.11455
400.89303
400.66657
400.43518
400.19892
399.95783
399.71193
399.46127
399.20588
398.94581
398.68109
398.41174
398.13782
397.85935
397.57637
397.28891
396.997
396.70069
396.39999
396.09495
395.78559
395.47194
395.15405
394.83192
394.5056
394.17512
393.84049
393.50175
393.15893
392.81205
392.46113
392.10621
391.7473
391.38442
391.01761
390.64687
390.27224
389.89374
389.51137
389.12516
388.73513
388.34129
387.94366
387.54225
387.13708
386.72816
386.31551
385.89912
385.47901
385.05519
384.62767
384.19646
383.76155
383.32295
382.88067
382.43471
381.98506
381.53173
381.07472
373.86473
375.47212
376.938
378.28177
379.52444
380.68277
381.76944
382.79414
383.76435
384.68601
385.56393
386.40205
387.20367
387.97158
388.70819
389.41557
390.09553
390.74967
391.3794
391.98599
392.57058
393.13419
393.67775
394.20211
394.70805
395.19627
395.66742
396.12212
396.56093
396.98435
397.39288
397.78697
398.16703
398.53347
398.88665
399.22693
399.55463
399.87006
400.17351
400.46526
400.74558
401.01471
401.27288
401.52033
401.75727
401.98389
402.2004
402.40698
402.60381
402.79106
402.96889
403.13746
403.29692
403.44741
403.58906
403.72202
403.84641
403.96235
404.06997
404.16937
404.26067
404.34398
404.41939
404.48701
404.54694
404.59927
404.64409
404.68149
404.71155
404.73437
404.75001
404.75856
404.7601
404.75469
404.74242
404.72335
404.69756
404.6651
404.62606
404.58048
404.52844
404.47
404.40521
404.33414
404.25685
404.17339
404.08381
403.98818
403.88655
403.77896
403.66548
403.54615
403.42103
403.29016
403.1536
403.01138
402.86357
402.7102
402.55132
402.38698
402.21723
402.0421
401.86165
401.67591
401.48493
401.28875
401.08741
400.88096
400.66944
400.45288
400.23132
400.00481
399.77339
399.53709
399.29596
399.05002
398.79933
398.54391
398.2838
398.01904
397.74966
397.4757
397.19719
396.91418
396.62668
396.33475
396.0384
395.73767
395.4326
395.12321
394.80953
394.4916
394.16945
393.8431
393.51259
393.17794
392.83917
392.49632
392.14942
391.79848
391.44353
391.08459
390.72169
390.35486
389.98411
389.60946
389.23093
388.84854
388.46232
388.07227
387.67841
387.28077
386.87935
386.47417
386.06524
385.65257
385.23617
384.81605
384.39223
383.9647
383.53348
383.09857
382.65997
382.21769
381.77173
381.32208
380.86875
380.41174
373.74456
375.18923
376.55437
377.83458
379.03523
380.16434
381.22977
382.23843
383.19614
384.10782
384.97759
385.80893
386.60484
387.36787
388.10027
388.80397
389.4807
390.13197
390.75915
391.36345
391.94597
392.5077
393.04956
393.57236
394.07687
394.56377
395.03372
395.48729
395.92505
396.34751
396.75513
397.14837
397.52764
397.89334
398.24582
398.58544
398.91252
399.22736
399.53026
399.82148
400.1013
400.36996
400.62768
400.8747
401.11123
401.33746
401.5536
401.75983
401.95632
402.14324
402.32076
402.48903
402.6482
402.7984
402.93979
403.0725
403.19664
403.31234
403.41973
403.51891
403.61
403.69309
403.76831
403.83574
403.89548
403.94763
403.99227
404.0295
404.05939
404.08204
404.09753
404.10592
404.10731
404.10176
404.08935
404.07014
404.04421
404.01162
403.97245
403.92675
403.87458
403.81602
403.75111
403.67993
403.60252
403.51894
403.42926
403.33352
403.23178
403.12409
403.01051
402.89108
402.76586
402.63489
402.49823
402.35592
402.20801
402.05455
401.89558
401.73115
401.56131
401.38609
401.20555
401.01973
400.82866
400.6324
400.43098
400.22444
400.01284
399.7962
399.57456
399.34798
399.11648
398.8801
398.63889
398.39288
398.14211
397.88662
397.62643
397.3616
397.09215
396.81812
396.53955
396.25647
395.96891
395.6769
395.38049
395.0797
394.77456
394.46511
394.15137
393.83339
393.51118
393.18477
392.8542
392.51949
392.18068
391.83778
391.49082
391.13983
390.78483
390.42585
390.06291
389.69603
389.32523
388.95054
388.57198
388.18956
387.8033
387.41321
387.01933
386.62166
386.22021
385.815
385.40605
384.99336
384.57694
384.15681
383.73297
383.30543
382.8742
382.43928
382.00067
381.55839
381.11242
380.66278
380.20946
379.75245
373.66885
374.98587
376.25567
377.46696
378.61755
379.70958
380.74688
381.73366
382.67398
383.57154
384.42966
385.25125
386.03888
386.79481
387.52104
388.21935
388.89132
389.53837
390.16177
390.76268
391.34214
391.9011
392.44042
392.96091
393.46329
393.94824
394.41638
394.86828
395.30448
395.72549
396.13176
396.52374
396.90183
397.26642
397.61786
397.95649
398.28264
398.59661
398.89867
399.18912
399.46819
399.73613
399.99318
400.23956
400.47548
400.70113
400.91671
401.12241
401.31839
401.50482
401.68187
401.84969
402.00843
402.15822
402.29922
402.43153
402.55531
402.67065
402.7777
402.87655
402.96731
403.0501
403.12501
403.19215
403.25161
403.30348
403.34786
403.38483
403.41448
403.43689
403.45213
403.4603
403.46146
403.45569
403.44307
403.42365
403.39752
403.36473
403.32536
403.27947
403.22712
403.16838
403.10329
403.03193
402.95435
402.87061
402.78076
402.68486
402.58296
402.47512
402.36138
402.2418
402.11643
401.98531
401.8485
401.70605
401.558
401.4044
401.2453
401.08073
400.91076
400.73541
400.55474
400.36878
400.17759
399.9812
399.77966
399.573
399.36127
399.14451
398.92276
398.69605
398.46444
398.22795
397.98662
397.7405
397.48962
397.23401
396.97372
396.70878
396.43923
396.1651
395.88642
395.60323
395.31557
395.02347
394.72696
394.42607
394.12084
393.8113
393.49747
393.17939
392.85709
392.5306
392.19995
391.86516
391.52626
391.18328
390.83625
390.48519
390.13012
389.77107
389.40806
389.04111
388.67026
388.29551
387.91688
387.53441
387.1481
386.75797
386.36403
385.96632
385.56483
385.15958
384.75059
384.33787
383.92143
383.50127
383.07741
382.64985
382.2186
381.78367
381.34506
380.90277
380.4568
380.00716
379.55384
379.09684
373.61381
374.82974
376.01549
377.16003
378.25842
379.30956
380.31451
381.27535
382.19456
383.07471
383.91827
384.72754
385.50462
386.25144
386.96973
387.66106
388.32686
388.96841
389.58689
390.18336
390.75881
391.31413
391.85013
392.36757
392.86715
393.34952
393.81527
394.26496
394.69911
395.11821
395.52269
395.913
396.28953
396.65264
397.0027
397.34003
397.66495
397.97775
398.27872
398.56812
398.8462
399.1132
399.36936
399.61489
399.84999
400.07487
400.28971
400.4947
400.69
400.87579
401.05222
401.21944
401.3776
401.52685
401.66731
401.79912
401.9224
402.03727
402.14386
402.24226
402.3326
402.41498
402.48949
402.55624
402.61533
402.66684
402.71086
402.74749
402.7768
402.79889
402.81382
402.82168
402.82254
402.81648
402.80357
402.78388
402.75748
402.72443
402.6848
402.63866
402.58606
402.52707
402.46175
402.39016
402.31235
402.22839
402.13832
402.0422
401.94009
401.83204
401.71809
401.59831
401.47274
401.34143
401.20443
401.06179
400.91355
400.75976
400.60047
400.43573
400.26557
400.09005
399.90921
399.72308
399.53172
399.33516
399.13345
398.92663
398.71474
398.49782
398.2759
398.04904
397.81727
397.58063
397.33915
397.09288
396.84185
396.5861
396.32566
396.06058
395.79088
395.51661
395.2378
394.95447
394.66668
394.37444
394.0778
393.77679
393.47143
393.16176
392.84782
392.52962
392.2072
391.8806
391.54983
391.21493
390.87593
390.53285
390.18571
389.83455
389.47939
389.12024
388.75714
388.39011
388.01917
387.64434
387.26564
386.88309
386.49671
386.10652
385.71252
385.31475
384.91321
384.50791
384.09887
383.68611
383.26962
382.84943
382.42554
381.99796
381.56669
381.13174
380.69312
380.25082
379.80485
379.35521
378.9019
378.44492
373.57044
374.7038
375.81651
376.89926
377.94653
378.95574
379.92625
380.85866
381.75421
382.61448
383.44117
384.23601
385.00063
385.7366
386.44538
387.12831
387.78664
388.42152
389.03401
389.62508
390.19562
390.74647
391.27839
391.79208
392.28822
392.76741
393.23022
393.67719
394.1088
394.52553
394.92781
395.31604
395.69063
396.05192
396.40026
396.73598
397.05937
397.37073
397.67033
397.95843
398.23529
398.50112
398.75617
399.00064
399.23473
399.45865
399.67257
399.87668
400.07114
400.25612
400.43177
400.59825
400.7557
400.90426
401.04406
401.17523
401.2979
401.41218
401.51819
401.61605
401.70586
401.78772
401.86173
401.928
401.98662
402.03768
402.08126
402.11746
402.14636
402.16804
402.18258
402.19006
402.19055
402.18413
402.17086
402.15083
402.12409
402.09071
402.05076
402.0043
401.95139
401.8921
401.82649
401.7546
401.67651
401.59226
401.50192
401.40553
401.30316
401.19484
401.08064
400.96061
400.83479
400.70323
400.56599
400.42311
400.27464
400.12062
399.96111
399.79614
399.62576
399.45002
399.26895
399.08261
398.89104
398.69427
398.49235
398.28533
398.07323
397.85611
397.634
397.40694
397.17498
396.93814
396.69648
396.45002
396.1988
395.94286
395.68225
395.41699
395.14711
394.87267
394.59368
394.31019
394.02223
393.72983
393.43302
393.13185
392.82633
392.51651
392.20241
391.88407
391.5615
391.23476
390.90385
390.56881
390.22968
389.88646
389.5392
389.18792
388.83263
388.47337
388.11016
387.74302
387.37198
386.99705
386.61825
386.23561
385.84914
385.45887
385.06479
384.66695
384.26533
383.85998
383.45088
383.03806
382.62153
382.2013
381.77737
381.34975
380.91846
380.48349
380.04485
379.60254
379.15657
378.70694
378.25364
377.79667
373.53459
374.5985
375.64749
376.67397
377.67272
378.6406
379.5761
380.47882
381.34913
382.18781
382.99594
383.77469
384.52529
385.24896
385.94687
386.62015
387.26988
387.89703
388.50255
389.08731
389.65212
390.19774
390.72486
391.23416
391.72624
392.20169
392.66102
393.10476
393.53337
393.9473
394.34696
394.73274
395.10502
395.46415
395.81045
396.14425
396.46582
396.77546
397.07344
397.36
397.63539
397.89984
398.15356
398.39676
398.62965
398.85242
399.06524
399.2683
399.46175
399.64577
399.8205
399.98609
400.14268
400.29042
400.42943
400.55985
400.68178
400.79536
400.90069
400.99789
401.08706
401.1683
401.24172
401.30741
401.36547
401.41599
401.45904
401.49473
401.52314
401.54433
401.5584
401.56542
401.56547
401.55861
401.54492
401.52447
401.49733
401.46356
401.42322
401.37638
401.32311
401.26346
401.19748
401.12525
401.04682
400.96224
400.87157
400.77486
400.67216
400.56354
400.44903
400.32869
400.20258
400.07073
399.9332
399.79003
399.64128
399.48698
399.32719
399.16195
398.99131
398.8153
398.63398
398.44738
398.25555
398.05853
397.85637
397.64909
397.43675
397.21939
396.99704
396.76975
396.53755
396.30049
396.05859
395.81191
395.56047
395.30431
395.04348
394.778
394.50792
394.23326
393.95407
393.67037
393.38221
393.08961
392.79261
392.49125
392.18554
391.87553
391.56125
391.24273
390.91999
390.59307
390.262
389.9268
389.5875
389.24413
388.89671
388.54528
388.18985
387.83045
387.46711
387.09984
386.72867
386.35362
385.97471
385.59196
385.20539
384.81501
384.42084
384.02291
383.62121
383.21578
382.80661
382.39373
381.97714
381.55685
381.13288
380.70523
380.2739
379.83891
379.40025
378.95793
378.51196
378.06233
377.60904
377.15209
373.50401
374.50813
375.50099
376.47642
377.42977
378.35785
379.25872
380.13141
380.97567
381.79171
382.58008
383.34152
384.07688
384.78706
385.47299
386.13557
386.77568
387.39417
387.99186
388.5695
389.12782
389.66749
390.18917
390.69345
391.18091
391.65206
392.10742
392.54747
392.97263
393.38334
393.77998
394.16294
394.53257
394.88921
395.23316
395.56473
395.88421
396.19187
396.48796
396.77274
397.04644
397.30927
397.56146
397.8032
398.0347
398.25613
398.46768
398.66952
398.86181
399.0447
399.21836
399.38292
399.53853
399.68531
399.82341
399.95294
400.07402
400.18678
400.29132
400.38775
400.47618
400.55671
400.62944
400.69446
400.75187
400.80175
400.8442
400.87929
400.90712
400.92775
400.94128
400.94776
400.94729
400.93993
400.92575
400.90481
400.8772
400.84297
400.80218
400.75491
400.7012
400.64113
400.57474
400.50211
400.42328
400.33831
400.24725
400.15017
400.0471
399.93811
399.82325
399.70256
399.57609
399.4439
399.30604
399.16254
399.01346
398.85884
398.69873
398.53318
398.36222
398.18591
398.00428
397.81738
397.62525
397.42794
397.22548
397.01792
396.8053
396.58766
396.36503
396.13747
395.905
395.66766
395.4255
395.17855
394.92686
394.67044
394.40936
394.14363
393.87329
393.59839
393.31896
393.03503
392.74663
392.4538
392.15657
391.85498
391.54906
391.23883
390.92434
390.6056
390.28266
389.95554
389.62427
389.28888
388.94939
388.60584
388.25825
387.90664
387.55104
387.19148
386.82798
386.46056
386.08924
385.71405
385.33501
384.95213
384.56543
384.17494
383.78066
383.38262
382.98083
382.57531
382.16606
381.7531
381.33645
380.9161
380.49207
380.06437
379.63301
379.19799
378.75931
378.31698
377.871
377.42137
376.9681
376.51117
373.47735
374.42902
375.3719
376.30094
377.21209
378.1023
378.96951
379.81244
380.63043
381.42328
382.19116
382.93443
383.65365
384.34943
385.02246
385.67344
386.3031
386.91212
387.50121
388.07101
388.62215
389.15525
389.67088
390.16958
390.65186
391.11823
391.56915
392.00505
392.42634
392.83344
393.2267
393.60648
393.97312
394.32694
394.66824
394.99731
395.31442
395.61984
395.91381
396.19657
396.46834
396.72935
396.9798
397.21989
397.4498
397.66973
397.87983
398.08029
398.27125
398.45288
398.62532
398.78871
398.94319
399.08889
399.22595
399.35448
399.47459
399.58642
399.69006
399.78562
399.87321
399.95292
400.02486
400.08912
400.14579
400.19495
400.2367
400.27112
400.29829
400.31828
400.33118
400.33706
400.336
400.32806
400.31332
400.29184
400.26369
400.22893
400.18763
400.13986
400.08566
400.02511
399.95825
399.88516
399.80587
399.72046
399.62897
399.53145
399.42797
399.31856
399.20329
399.0822
398.95534
398.82276
398.68451
398.54063
398.39117
398.23619
398.07571
397.9098
397.73849
397.56182
397.37985
397.19261
397.00014
396.80249
396.59971
396.39182
396.17887
395.96091
395.73797
395.51008
395.2773
395.03966
394.7972
394.54995
394.29795
394.04125
393.77987
393.51386
393.24324
392.96806
392.68835
392.40414
392.11548
391.82238
391.5249
391.22305
390.91687
390.6064
390.29166
389.97269
389.64951
389.32216
388.99066
388.65505
388.31535
387.97159
387.62379
387.27199
386.9162
386.55645
386.19277
385.82518
385.45369
385.07834
384.69914
384.31611
383.92928
383.53865
383.14425
382.74609
382.34419
381.93856
381.52922
381.11618
380.69944
380.27902
379.85494
379.42719
378.99578
378.56072
378.12202
377.67968
377.23369
376.78407
376.33081
375.87391
373.45371
374.35871
375.25665
376.14337
377.01533
377.86976
378.7046
379.51841
380.31031
381.07983
381.82683
382.55141
383.25385
383.93454
384.59397
385.23265
385.85115
386.45002
387.02984
387.59117
388.13454
388.66048
389.16951
389.66211
390.13874
390.59986
391.04589
391.47722
391.89426
392.29737
392.68689
393.06315
393.42649
393.77719
394.11555
394.44184
394.75633
395.05925
395.35086
395.63137
395.90102
396.15999
396.40851
396.64675
396.8749
397.09314
397.30164
397.50055
397.69003
397.87024
398.04132
398.20341
398.35663
398.50113
398.63702
398.76442
398.88346
398.99424
399.09687
399.19146
399.27811
399.35691
399.42797
399.49137
399.54721
399.59557
399.63654
399.6702
399.69663
399.71591
399.72811
399.73331
399.73159
399.723
399.70763
399.68553
399.65678
399.62144
399.57957
399.53123
399.47648
399.41539
399.34801
399.27439
399.1946
399.10869
399.01671
398.91871
398.81475
398.70488
398.58915
398.46761
398.3403
398.20728
398.0686
397.9243
397.77442
397.61902
397.45814
397.29182
397.12011
396.94305
396.76068
396.57306
396.38021
396.18219
395.97903
395.77077
395.55746
395.33913
395.11584
394.8876
394.65447
394.41648
394.17368
393.92609
393.67376
393.41673
393.15502
392.88868
392.61775
392.34226
392.06223
391.77772
391.48875
391.19536
390.89758
390.59544
390.28898
389.97823
389.66322
389.34398
389.02053
388.69292
388.36118
388.02532
387.68537
387.34137
386.99335
386.64132
386.28531
385.92536
385.56147
385.19368
384.82201
384.44647
384.0671
383.6839
383.29691
382.90613
382.51159
382.1133
381.71127
381.30553
380.89608
380.48294
380.06612
379.64562
379.22147
378.79366
378.3622
377.9271
377.48837
377.04601
376.60002
376.1504
375.69716
375.24028
373.43247
374.29545
375.15264
376.00054
376.8361
377.65681
378.4607
379.24629
380.01258
380.7589
381.48492
382.19053
382.8758
383.54093
384.18622
384.81204
385.41881
386.00697
386.57697
387.12928
387.66435
388.18263
388.68457
389.1706
389.64114
390.09658
390.53731
390.9637
391.37611
391.77488
392.16033
392.53276
392.89249
393.23979
393.57494
393.89819
394.20979
394.50998
394.799
395.07705
395.34435
395.6011
395.84749
396.0837
396.30992
396.5263
396.73302
396.93024
397.11809
397.29674
397.46632
397.62696
397.7788
397.92196
398.05657
398.18274
398.30058
398.41021
398.51173
398.60524
398.69085
398.76864
398.83873
398.90119
398.95611
399.00358
399.04369
399.07651
399.10212
399.12061
399.13204
399.13649
399.13403
399.12473
399.10866
399.08588
399.05647
399.02047
398.97797
398.92901
398.87365
398.81196
398.74399
398.66981
398.58945
398.50298
398.41046
398.31193
398.20745
398.09706
397.98082
397.85878
397.73098
397.59748
397.45831
397.31354
397.1632
397.00734
396.846
396.67923
396.50708
396.32958
396.14678
395.95873
395.76546
395.56702
395.36344
395.15478
394.94106
394.72234
394.49864
394.27001
394.0365
393.79813
393.55494
393.30698
393.05428
392.79687
392.53481
392.26811
391.99682
391.72098
391.44061
391.15576
390.86645
390.57273
390.27462
389.97216
389.66539
389.35432
389.039
388.71946
388.39573
388.06783
387.7358
387.39966
387.05945
386.71519
386.3669
386.01463
385.65838
385.29819
384.93408
384.56607
384.19418
383.81845
383.43888
383.0555
382.66833
382.27738
381.88268
381.48424
381.08208
380.6762
380.26664
379.85338
379.43646
379.01588
378.59165
378.16377
377.73226
377.29712
376.85836
376.41597
375.96998
375.52036
375.06713
374.61029
373.41321
374.23798
375.05792
375.87006
376.67173
377.46069
378.23509
378.99349
379.7348
380.45828
381.16343
381.84999
382.51788
383.16714
383.79794
384.41049
385.0051
385.58208
386.1418
386.68463
387.21094
387.72112
388.21554
388.69459
389.15863
389.60801
390.04307
390.46417
390.87161
391.26571
391.64677
392.01508
392.37092
392.71454
393.04621
393.36617
393.67466
393.9719
394.2581
394.53349
394.79824
395.05257
395.29664
395.53065
395.75476
395.96912
396.17391
396.36928
396.55536
396.73231
396.90025
397.05932
397.20965
397.35136
397.48456
397.60938
397.72592
397.83429
397.93459
398.02693
398.1114
398.18809
398.25711
398.31854
398.37246
398.41896
398.45812
398.49002
398.51474
398.53236
398.54295
398.54657
398.54331
398.53323
398.5164
398.49287
398.46273
398.42602
398.38282
398.33318
398.27716
398.21481
398.1462
398.07138
397.99041
397.90334
397.81022
397.7111
397.60604
397.49509
397.37829
397.2557
397.12736
396.99333
396.85364
396.70834
396.55749
396.40113
396.23929
396.07203
395.89939
395.72141
395.53814
395.34961
395.15588
394.95698
394.75295
394.54383
394.32967
394.11051
393.88638
393.65732
393.42337
393.18458
392.94098
392.6926
392.43949
392.18169
391.91922
391.65213
391.38045
391.10422
390.82347
390.53824
390.24857
389.95448
389.65601
389.3532
389.04608
388.73467
388.41901
388.09914
387.77508
387.44687
387.11452
386.77808
386.43757
386.09302
385.74446
385.39191
385.03539
384.67494
384.31058
383.94233
383.57021
383.19425
382.81447
382.43088
382.04352
381.65239
381.25751
380.85891
380.45659
380.05057
379.64087
379.2275
378.81047
378.38979
377.96547
377.53752
377.10595
376.67076
376.23196
375.78956
375.34355
374.89394
374.44073
373.98391
373.39557
374.18534
374.97101
375.75003
376.52008
377.27913
378.02549
378.75776
379.47486
380.17597
380.86052
381.52813
382.17859
382.81183
383.42789
384.02689
384.609
385.17445
385.72352
386.25649
386.77366
387.27536
387.7619
388.2336
388.69077
389.13374
389.56281
389.97828
390.38045
390.76959
391.14598
391.50988
391.86155
392.20125
392.5292
392.84564
393.15078
393.44484
393.72803
394.00054
394.26257
394.51428
394.75587
394.9875
395.20933
395.42153
395.62423
395.8176
396.00177
396.17688
396.34305
396.50043
396.64912
396.78925
396.92094
397.0443
397.15942
397.26643
397.36542
397.45648
397.53972
397.61523
397.68309
397.74339
397.79623
397.84167
397.87981
397.91072
397.93447
397.95114
397.96081
397.96355
397.95941
397.94848
397.93082
397.90649
397.87555
397.83807
397.79411
397.74373
397.68698
397.62392
397.55462
397.47912
397.39747
397.30974
397.21597
397.11622
397.01053
396.89897
396.78156
396.65837
396.52945
396.39483
396.25457
396.10871
395.9573
395.80038
395.63801
395.47021
395.29704
395.11854
394.93475
394.74571
394.55147
394.35207
394.14754
393.93794
393.72329
393.50364
393.27904
393.04951
392.8151
392.57585
392.33179
392.08296
391.82941
391.57116
391.30826
391.04074
390.76863
390.49198
390.21082
389.92518
389.6351
389.34061
389.04175
388.73855
388.43105
388.11926
387.80324
387.48301
387.15859
386.83003
386.49735
386.16057
385.81974
385.47487
385.126
384.77314
384.41634
384.05561
383.69097
383.32245
382.95008
382.57388
382.19386
381.81005
381.42247
381.03114
380.63607
380.23729
379.8348
379.42863
379.01878
378.60528
378.18813
377.76734
377.34292
376.91489
376.48325
376.04801
375.60917
375.16674
374.72072
374.27111
373.81792
373.36114
373.37933
374.1368
374.89075
375.63897
376.37941
377.11027
377.82998
378.53721
379.23091
379.91023
380.57455
381.22341
381.85652
382.47371
383.07492
383.66017
384.22955
384.78322
385.32134
385.84415
386.35187
386.84476
387.32309
387.78712
388.23713
388.67338
389.09615
389.50571
389.90231
390.28621
390.65766
391.0169
391.36417
391.6997
392.0237
392.33639
392.63798
392.92867
393.20864
393.47809
393.73719
393.98613
394.22506
394.45414
394.67355
394.88341
395.08389
395.27512
395.45724
395.63038
395.79466
395.95021
396.09715
396.2356
396.36566
396.48744
396.60105
396.7066
396.80417
396.89386
396.97578
397.05
397.11662
397.17572
397.22738
397.27169
397.30873
397.33856
397.36128
397.37694
397.38562
397.38739
397.38232
397.37047
397.35191
397.32671
397.29492
397.2566
397.21183
397.16064
397.10311
397.03929
396.96923
396.89299
396.81062
396.72218
396.62771
396.52727
396.42091
396.30867
396.19062
396.06678
395.93722
395.80197
395.6611
395.51463
395.36262
395.20511
395.04214
394.87376
394.70002
394.52095
394.3366
394.14701
393.95222
393.75228
393.54722
393.33708
393.12191
392.90174
392.67662
392.44658
392.21167
391.97192
391.72737
391.47805
391.22401
390.96529
390.70191
390.43392
390.16136
389.88425
389.60264
389.31655
389.02604
388.73112
388.43183
388.12821
387.82029
387.5081
387.19168
386.87105
386.54625
386.21731
385.88426
385.54713
385.20594
384.86073
384.51152
384.15834
383.80121
383.44017
383.07524
382.70644
382.33379
381.95732
381.57704
381.19299
380.80518
380.41363
380.01835
379.61937
379.2167
378.81035
378.40035
377.9867
377.56942
377.14851
376.724
376.29587
375.86416
375.42886
374.98997
374.54751
374.10148
373.65187
373.1987
372.74195
373.36427
374.09177
374.81622
375.53567
376.24834
376.95257
377.64693
378.3302
379.00133
379.6595
380.30404
380.93445
381.55037
382.15157
382.7379
383.30932
383.86583
384.40751
384.93448
385.44689
385.9449
386.42873
386.89858
387.35467
387.79723
388.2265
388.64271
389.04609
389.43687
389.81528
390.18155
390.5359
390.87854
391.20967
391.52951
391.83825
392.13608
392.4232
392.69977
392.96598
393.22199
393.46797
393.70408
393.93048
394.1473
394.35469
394.5528
394.74176
394.92169
395.09273
395.25499
395.40861
395.55368
395.69032
395.81865
395.93876
396.05075
396.15473
396.25079
396.33903
396.41953
396.49238
396.55767
396.61548
396.6659
396.70899
396.74485
396.77354
396.79513
396.80971
396.81733
396.81807
396.81199
396.79917
396.77965
396.75351
396.72081
396.6816
396.63595
396.58391
396.52554
396.46089
396.39003
396.31299
396.22985
396.14064
396.04542
395.94425
395.83716
395.72421
395.60545
395.48092
395.35067
395.21476
395.07321
394.92609
394.77343
394.61528
394.45168
394.28268
394.10832
393.92865
393.74369
393.55351
393.35813
393.1576
392.95196
392.74126
392.52552
392.3048
392.07912
391.84854
391.61308
391.37279
391.12771
390.87787
390.62331
390.36407
390.10018
389.83169
389.55863
389.28103
388.99893
388.71237
388.42137
388.12599
387.82624
387.52217
387.2138
386.90118
386.58432
386.26327
385.93806
385.60871
385.27526
384.93773
384.59616
384.25058
383.90101
383.54747
383.19001
382.82863
382.46338
382.09426
381.72132
381.34456
380.96401
380.57969
380.19163
379.79984
379.40433
379.00514
378.60227
378.19574
377.78556
377.37176
376.95433
376.5333
376.10867
375.68045
375.24866
374.81329
374.37435
373.93186
373.48581
373.0362
372.58305
372.12634
373.35023
374.04979
374.74668
375.43918
376.12569
376.80473
377.47499
378.13532
378.78473
379.42239
380.04765
380.65997
381.25894
381.84429
382.4158
382.97337
383.51694
384.04653
384.56219
385.06401
385.55213
386.02667
386.48782
386.93574
387.37063
387.79268
388.20209
388.59906
388.9838
389.3565
389.71737
390.06661
390.4044
390.73094
391.04642
391.35102
391.64491
391.92827
392.20127
392.46406
392.71682
392.95969
393.19283
393.41638
393.63047
393.83526
394.03086
394.21741
394.39504
394.56385
394.72398
394.87554
395.01863
395.15337
395.27985
395.39818
395.50846
395.61079
395.70524
395.79193
395.87092
395.94232
396.0062
396.06264
396.11173
396.15353
396.18813
396.2156
396.23601
396.24943
396.25593
396.25557
396.24842
396.23455
396.21401
396.18688
396.1532
396.11304
396.06645
396.0135
395.95423
395.88871
395.81699
395.73911
395.65513
395.56511
395.46909
395.36713
395.25927
395.14555
395.02604
394.90077
394.7698
394.63316
394.49091
394.34309
394.18974
394.0309
393.86663
393.69697
393.52195
393.34162
393.15602
392.9652
392.76919
392.56804
392.36178
392.15046
391.93412
391.7128
391.48653
391.25536
391.01932
390.77845
390.5328
390.2824
390.02728
389.76749
389.50306
389.23403
388.96043
388.6823
388.39968
388.11261
387.82111
387.52522
387.22498
386.92042
386.61158
386.29848
385.98116
385.65965
385.33399
385.00421
384.67033
384.33238
383.9904
383.64442
383.29445
382.94054
382.58271
382.22098
381.85537
381.48593
381.11266
380.73559
380.35474
379.97014
379.5818
379.18975
378.79401
378.39458
377.9915
377.58477
377.17441
376.76043
376.34285
375.92168
375.49693
375.06861
374.63672
374.20128
373.76229
373.31976
372.87369
372.42409
371.97095
371.51428
373.3371
374.0105
374.68153
375.34868
376.0105
376.66567
377.31298
377.95136
378.57986
379.1977
379.8042
380.39883
380.98115
381.55084
382.10764
382.65141
383.18203
383.69947
384.20373
384.69485
385.17292
385.63802
386.09029
386.52985
386.95687
387.3715
387.77391
388.16427
388.54276
388.90955
389.26483
389.60876
389.94151
390.26328
390.57421
390.87449
391.16426
391.4437
391.71296
391.97219
392.22154
392.46115
392.69117
392.91173
393.12296
393.325
393.51797
393.70199
393.87719
394.04367
394.20155
394.35094
394.49194
394.62467
394.74921
394.86567
394.97413
395.0747
395.16747
395.25251
395.32992
395.39978
395.46216
395.51716
395.56484
395.60528
395.63855
395.66473
395.68388
395.69607
395.70138
395.69986
395.69158
395.6766
395.65498
395.62679
395.59207
395.5509
395.50333
395.44941
395.38919
395.32274
395.2501
395.17132
395.08647
394.99558
394.89871
394.79591
394.68722
394.5727
394.45239
394.32634
394.19459
394.05718
393.91418
393.76561
393.61152
393.45196
393.28698
393.1166
392.94088
392.75986
392.57358
392.38207
392.18539
391.98358
391.77666
391.56469
391.34771
391.12574
390.89884
390.66705
390.43039
390.18891
389.94265
389.69164
389.43593
389.17555
388.91054
388.64093
388.36676
388.08807
387.8049
387.51727
387.22523
386.92881
386.62804
386.32296
386.0136
385.7
385.38219
385.06019
384.73405
384.4038
384.06946
383.73107
383.38865
383.04223
382.69185
382.33754
381.97931
381.61719
381.25122
380.88141
380.50779
380.13039
379.74923
379.36432
378.97569
378.58337
378.18736
377.78769
377.38437
376.97743
376.56687
376.15271
375.73496
375.31364
374.88876
374.46032
374.02834
373.59283
373.15378
372.71121
372.26512
371.81551
371.36238
370.90575
373.32476
373.97356
374.62026
375.2635
375.90197
376.53448
377.15991
377.77726
378.38566
378.98433
379.57263
380.15
380.71599
381.27026
381.81253
382.34259
382.86031
383.36559
383.85841
384.33876
384.80667
385.2622
385.70545
386.13651
386.5555
386.96254
387.35778
387.74136
388.11342
388.47413
388.82362
389.16207
389.48963
389.80644
390.11266
390.40845
390.69396
390.96932
391.23469
391.4902
391.73599
391.9722
392.19896
392.4164
392.62465
392.82381
393.01403
393.1954
393.36805
393.53208
393.68761
393.83472
393.97354
394.10415
394.22665
394.34114
394.4477
394.54643
394.63741
394.72073
394.79647
394.86471
394.92552
394.97899
395.02519
395.06419
395.09606
395.12088
395.1387
395.14961
395.15365
395.15091
395.14143
395.12528
395.10252
395.07321
395.03741
394.99517
394.94655
394.8916
394.83039
394.76295
394.68934
394.60962
394.52383
394.43203
394.33426
394.23058
394.12102