/*--------------------------------*- C++ -*----------------------------------*\
| =========                 |                                                 |
| \\      /  F ield         | OpenFOAM: The Open Source CFD Toolbox           |
|  \\    /   O peration     | Version:  v1606+                                |
|   \\  /    A nd           | Web:      www.OpenFOAM.com                      |
|    \\/     M anipulation  |                                                 |
\*---------------------------------------------------------------------------*/
FoamFile
{
    version     2.0;
    format      ascii;
    class       volScalarField;
    location    "0.03/unShaded";
    object      T;
}
// * * * * * * * * * * * * * * * * * * * * * * * * * * * * * * * * * * * * * //

dimensions      [0 0 0 1 0 0 0];

internalField   nonuniform List<scalar> 
24480
(
374.10695
375.89644
377.44364
378.82991
380.09781
381.27261
382.37082
383.40401
384.38073
385.30754
386.18961
387.03116
387.83566
388.60602
389.34473
390.05393
390.73548
391.39102
392.022
392.6297
393.21529
393.7798
394.32417
394.84928
395.35589
395.84472
396.31645
396.77167
397.21095
397.63482
398.04376
398.43823
398.81865
399.18542
399.53891
399.87947
400.20744
400.52312
400.8268
401.11878
401.3993
401.66862
401.92698
402.1746
402.4117
402.63847
402.85513
403.06184
403.2588
403.44617
403.62411
403.79279
403.95235
404.10293
404.24467
404.37772
404.50219
404.6182
404.72589
404.82536
404.91673
405.00009
405.07556
405.14324
405.20322
405.2556
405.30046
405.3379
405.36801
405.39086
405.40653
405.41512
405.41668
405.41131
405.39907
405.38002
405.35425
405.32182
405.2828
405.23724
405.18522
405.12679
405.06202
404.99097
404.91369
404.83024
404.74067
404.64505
404.54343
404.43585
404.32238
404.20306
404.07794
403.94708
403.81052
403.66831
403.52049
403.36713
403.20825
403.04392
402.87416
402.69904
402.51858
402.33284
402.14186
401.94568
401.74434
401.53789
401.32636
401.1098
400.88824
400.66173
400.43031
400.194
399.95286
399.70692
399.45622
399.2008
398.94068
398.67591
398.40653
398.13256
397.85405
397.57103
397.28353
396.99158
396.69523
396.39449
396.08941
395.78001
395.46633
395.14839
394.82623
394.49987
394.16934
393.83468
393.49591
393.15305
392.80613
392.45518
392.10021
391.74127
391.37836
391.01151
390.64074
390.26608
389.88754
389.50514
389.1189
388.72884
388.33497
387.93731
387.53588
387.13068
386.72173
386.30905
385.89264
385.4725
385.04866
384.62112
384.18988
383.75495
383.31634
382.87404
382.42806
381.9784
381.52505
381.06802
373.86471
375.47205
376.93789
378.28162
379.52425
380.68253
381.76916
382.79381
383.76398
384.6856
385.56348
386.40155
387.20313
387.971
388.70757
389.41491
390.09482
390.74891
391.3786
391.98515
392.5697
393.13326
393.67678
394.2011
394.70699
395.19517
395.66628
396.12094
396.5597
396.98308
397.39157
397.78561
398.16563
398.53203
398.88517
399.2254
399.55306
399.86844
400.17185
400.46356
400.74383
401.01292
401.27105
401.51846
401.75535
401.98193
402.1984
402.40494
402.60172
402.78893
402.96672
403.13524
403.29465
403.4451
403.58671
403.71962
403.84397
403.95987
404.06744
404.1668
404.25806
404.34132
404.41669
404.48427
404.54416
404.59644
404.64122
404.67857
404.70859
404.73136
404.74696
404.75547
404.75696
404.75151
404.7392
404.72008
404.69425
404.66175
404.62266
404.57704
404.52496
404.46647
404.40164
404.33053
404.25319
404.16968
404.08006
403.98439
403.88271
403.77508
403.66156
403.54219
403.41702
403.28611
403.1495
403.00724
402.85938
402.70597
402.54705
402.38267
402.21287
402.0377
401.8572
401.67142
401.4804
401.28417
401.08279
400.8763
400.66473
400.44813
400.22653
399.99998
399.76852
399.53218
399.291
399.04502
398.79428
398.53882
398.27867
398.01386
397.74444
397.47044
397.1919
396.90884
396.62131
396.32933
396.03294
395.73217
395.42706
395.11763
394.80391
394.48595
394.16375
393.83737
393.50682
393.17213
392.83332
392.49044
392.14349
391.79252
391.43753
391.07856
390.71563
390.34876
389.97797
389.60329
389.22473
388.84231
388.45606
388.06598
387.6721
387.27442
386.87297
386.46776
386.05881
385.64611
385.22969
384.80955
384.3857
383.95815
383.52691
383.09197
382.65336
382.21106
381.76507
381.31541
380.86207
380.40504
373.74454
375.18917
376.55426
377.83443
379.03503
380.1641
381.22949
382.2381
383.19578
384.10741
384.97713
385.80844
386.6043
387.36729
388.09965
388.8033
389.47999
390.13122
390.75835
391.36261
391.94508
392.50678
393.04859
393.57135
394.07581
394.56268
395.03258
395.48611
395.92382
396.34624
396.75382
397.14701
397.52624
397.8919
398.24434
398.58391
398.91094
399.22574
399.5286
399.81978
400.09956
400.36817
400.62585
400.87283
401.10931
401.3355
401.5516
401.75778
401.95423
402.14111
402.31858
402.48681
402.64593
402.7961
402.93744
403.0701
403.1942
403.30986
403.4172
403.51634
403.60738
403.69044
403.76561
403.833
403.89269
403.9448
403.98939
404.02658
404.05643
404.07904
404.09448
404.10283
404.10418
404.09858
404.08612
404.06687
404.0409
404.00827
403.96905
403.9233
403.8711
403.81249
403.74754
403.67631
403.59886
403.51524
403.42551
403.32973
403.22794
403.12021
403.00659
402.88711
402.76185
402.63084
402.49413
402.35178
402.20382
402.05032
401.89131
401.72684
401.55695
401.38169
401.2011
401.01524
400.82413
400.62782
400.42636
400.21978
400.00813
399.79145
399.56977
399.34314
399.1116
398.87518
398.63393
398.38788
398.13706
397.88153
397.6213
397.35643
397.08694
396.81287
396.53425
396.25113
395.96353
395.67148
395.37503
395.0742
394.76902
394.45953
394.14576
393.82773
393.50548
393.17904
392.84843
392.51368
392.17483
391.83189
391.48489
391.13387
390.77884
390.41982
390.05684
389.68993
389.3191
388.94438
388.56578
388.18333
387.79704
387.40692
387.01301
386.61531
386.21383
385.8086
385.39961
384.9869
384.57046
384.1503
383.72644
383.29887
382.86762
382.43268
381.99406
381.55175
381.10577
380.65611
380.20277
379.74575
373.66883
374.98581
376.25557
377.46681
378.61735
379.70934
380.7466
381.73333
382.67361
383.57113
384.42921
385.25076
386.03834
386.79423
387.52041
388.21868
388.89061
389.53761
390.16097
390.76184
391.34126
391.90017
392.43946
392.9599
393.46224
393.94714
394.41524
394.86709
395.30326
395.72422
396.13045
396.52239
396.90043
397.26497
397.61637
397.95496
398.28107
398.59499
398.89701
399.18741
399.46644
399.73434
399.99135
400.23769
400.47356
400.69917
400.91471
401.12036
401.3163
401.50269
401.6797
401.84747
402.00616
402.15592
402.29686
402.42914
402.55287
402.66817
402.77517
402.87398
402.9647
403.04744
403.12231
403.18941
403.24882
403.30065
403.34499
403.38191
403.41152
403.43388
403.44909
403.45721
403.45833
403.45251
403.43984
403.42039
403.39421
403.36138
403.32197
403.27603
403.22364
403.16485
403.09972
403.02832
402.95069
402.86691
402.77701
402.68107
402.57913
402.47124
402.35746
402.23783
402.11242
401.98126
401.84441
401.70191
401.55382
401.40017
401.24103
401.07642
400.9064
400.73101
400.55029
400.36429
400.17306
399.97662
399.77504
399.56834
399.35656
399.13976
398.91797
398.69122
398.45956
398.22303
397.98166
397.7355
397.48457
397.22892
396.96859
396.70361
396.43401
396.15984
395.88112
395.59789
395.31019
395.01805
394.7215
394.42057
394.1153
393.80571
393.49185
393.17373
392.8514
392.52487
392.19417
391.85935
391.52041
391.1774
390.83033
390.47923
390.12412
389.76504
389.40199
389.03502
388.66412
388.28934
387.91069
387.52818
387.14183
386.75167
386.35771
385.95996
385.55845
385.15317
384.74416
384.33141
383.91494
383.49476
383.07087
382.64329
382.21202
381.77707
381.33844
380.89613
380.45014
380.00048
379.54715
379.09014
373.61378
374.82968
376.01538
377.15988
378.25822
379.30932
380.31423
381.27502
382.19419
383.0743
383.91782
384.72704
385.50408
386.25086
386.9691
387.66039
388.32615
388.96766
389.58609
390.18252
390.75793
391.3132
391.84916
392.36656
392.8661
393.34842
393.81413
394.26378
394.69789
395.11694
395.52138
395.91165
396.28813
396.6512
397.00121
397.3385
397.66337
397.97613
398.27706
398.56641
398.84445
399.11142
399.36753
399.61302
399.84808
400.07291
400.28771
400.49265
400.68791
400.87366
401.05004
401.21722
401.37534
401.52454
401.66496
401.79672
401.91996
402.03479
402.14133
402.23969
402.32999
402.41232
402.48679
402.5535
402.61254
402.66401
402.70799
402.74457
402.77384
402.79588
402.81077
402.81859
402.81941
402.81331
402.80035
402.78062
402.75417
402.72108
402.68141
402.63522
402.58258
402.52354
402.45818
402.38654
402.30869
402.22468
402.13457
402.03841
401.93625
401.82816
401.71417
401.59434
401.46873
401.33737
401.20033
401.05764
400.90936
400.75553
400.5962
400.43141
400.26121
400.08565
399.90476
399.71859
399.52718
399.33058
399.12883
398.92197
398.71003
398.49307
398.27111
398.04421
397.81239
397.57571
397.33419
397.08787
396.8368
396.58101
396.32053
396.0554
395.78567
395.51135
395.2325
394.94913
394.6613
394.36902
394.07234
393.77129
393.46589
393.15618
392.84219
392.52396
392.2015
391.87486
391.54406
391.20912
390.87008
390.52696
390.17979
389.82859
389.47339
389.11421
388.75108
388.38401
388.01304
387.63817
387.25944
386.87686
386.49045
386.10022
385.7062
385.30839
384.90682
384.5015
384.09243
383.67964
383.26313
382.84292
382.419
381.9914
381.56011
381.12514
380.68649
380.24418
379.79819
379.34853
378.89521
378.43821
373.57042
374.70373
375.8164
376.89911
377.94634
378.9555
379.92597
380.85833
381.75384
382.61407
383.44072
384.23551
385.00009
385.73602
386.44475
387.12764
387.78593
388.42077
389.03321
389.62424
390.19474
390.74554
391.27742
391.79107
392.28717
392.76632
393.22908
393.676
394.10757
394.52426
394.92649
395.31469
395.68923
396.05048
396.39878
396.73445
397.0578
397.36911
397.66867
397.95673
398.23354
398.49934
398.75434
398.99876
399.23282
399.45669
399.67057
399.87463
400.06905
400.25398
400.42959
400.59603
400.75343
400.90195
401.04171
401.17283
401.29546
401.4097
401.51567
401.61348
401.70324
401.78506
401.85903
401.92526
401.98383
402.03485
402.07839
402.11454
402.1434
402.16504
402.17953
402.18697
402.18741
402.18095
402.16764
402.14756
402.12078
402.08735
402.04736
402.00086
401.94791
401.88857
401.82291
401.75099
401.67285
401.58856
401.49817
401.40174
401.29932
401.19096
401.07672
400.95664
400.83078
400.69918
400.5619
400.41897
400.27046
400.11639
399.95683
399.79182
399.6214
399.44561
399.26451
399.07812
398.8865
398.68969
398.48773
398.28066
398.06853
397.85136
397.62921
397.40211
397.1701
396.93322
396.69151
396.44501
396.19375
395.93777
395.67712
395.41181
395.1419
394.86741
394.58838
394.30485
394.01684
393.7244
393.42756
393.12634
392.82079
392.51093
392.19679
391.8784
391.5558
391.22902
390.89807
390.563
390.22382
389.88057
389.53327
389.18195
388.82663
388.46734
388.10409
387.73692
387.36584
386.99088
386.61205
386.22938
385.84288
385.45257
385.05847
384.66059
384.25895
383.85356
383.44444
383.03159
382.61504
382.19478
381.77082
381.34319
380.91187
380.47688
380.03822
379.59589
379.14991
378.70025
378.24694
377.78996
373.53457
374.59844
375.64739
376.67382
377.67252
378.64036
379.57582
380.4785
381.34876
382.18741
382.99549
383.7742
384.52475
385.24837
385.94624
386.61949
387.26917
387.89628
388.50176
389.08647
389.65124
390.19681
390.7239
391.23315
391.72519
392.20059
392.65988
393.10358
393.53215
393.94603
394.34565
394.73139
395.10362
395.46271
395.80897
396.14272
396.46425
396.77385
397.07178
397.3583
397.63365
397.89805
398.15173
398.39489
398.62774
398.85046
399.06324
399.26625
399.45966
399.64363
399.81832
399.98387
400.14042
400.28811
400.42708
400.55745
400.67934
400.79288
400.89816
400.99532
401.08444
401.16565
401.23902
401.30467
401.36269
401.41316
401.45617
401.49182
401.52017
401.54133
401.55536
401.56233
401.56233
401.55543
401.5417
401.52121
401.49402
401.4602
401.41982
401.37294
401.31962
401.25993
401.19391
401.12164
401.04316
400.95854
400.86782
400.77107
400.66833
400.55966
400.44511
400.32473
400.19857
400.06667
399.9291
399.78589
399.63709
399.48276
399.32292
399.15764
398.98695
398.8109
398.62953
398.44289
398.25102
398.05395
397.85174
397.64443
397.43205
397.21464
396.99225
396.76492
396.53267
396.29557
396.05363
395.8069
395.55542
395.29922
395.03835
394.77283
394.5027
394.228
393.94877
393.66503
393.37683
393.08419
392.78715
392.48574
392.18
391.86995
391.55563
391.23706
390.91429
390.58733
390.25622
389.92098
389.58164
389.23824
388.89078
388.53931
388.18385
387.82442
387.46104
387.09373
386.72253
386.34745
385.9685
385.58572
385.19911
384.80871
384.41451
384.01654
383.61482
383.20936
382.80016
382.38726
381.97064
381.55033
381.12633
380.69866
380.26731
379.83229
379.39361
378.95128
378.50529
378.05564
377.60233
377.14537
373.50399
374.50807
375.50088
376.47627
377.42957
378.35761
379.25844
380.13109
380.9753
381.7913
382.57963
383.34103
384.07634
384.78648
385.47236
386.1349
386.77497
387.39342
387.99106
388.56866
389.12693
389.66657
390.1882
390.69244
391.17985
391.65097
392.10628
392.54628
392.9714
393.38207
393.77867
394.16159
394.53117
394.88776
395.23167
395.5632
395.88264
396.19025
396.48631
396.77104
397.04469
397.30748
397.55963
397.80133
398.03278
398.25417
398.46568
398.66747
398.85971
399.04257
399.21618
399.3807
399.53626
399.683
399.82106
399.95054
400.07158
400.1843
400.28879
400.38518
400.47357
400.55406
400.62674
400.69172
400.74908
400.79892
400.84132
400.87637
400.90416
400.92475
400.93823
400.94467
400.94415
400.93675
400.92252
400.90155
400.87389
400.83961
400.79878
400.75146
400.69772
400.6376
400.57117
400.49849
400.41962
400.3346
400.2435
400.14637
400.04327
399.93423
399.81932
399.69859
399.57208
399.43985
399.30194
399.1584
399.00927
398.85461
398.69446
398.52886
398.35786
398.1815
397.99983
397.81289
397.62072
397.42336
397.22086
397.01326
396.8006
396.58291
396.36024
396.13263
395.90012
395.66274
395.42054
395.17355
394.9218
394.66535
394.40422
394.13845
393.86808
393.59313
393.31366
393.02968
392.74124
392.44837
392.15111
391.84947
391.54351
391.23324
390.91871
390.59994
390.27696
389.9498
389.61849
389.28306
388.94353
388.59994
388.25231
387.90067
387.54504
387.18544
386.8219
386.45445
386.0831
385.70787
385.3288
384.94588
384.55916
384.16863
383.77432
383.37626
382.97444
382.56888
382.15961
381.74662
381.32994
380.90957
380.48552
380.0578
379.62641
379.19137
378.75267
378.31032
377.86432
377.41468
376.96138
376.50444
373.47733
374.42896
375.37179
376.30079
377.21189
378.10206
378.96923
379.81212
380.63006
381.42287
382.19071
382.93394
383.65311
384.34885
385.02183
385.67278
386.30239
386.91137
387.50041
388.07017
388.62127
389.15433
389.66991
390.16856
390.65081
391.11714
391.56801
392.00386
392.42512
392.83217
393.22538
393.60512
393.97172
394.3255
394.66675
394.99578
395.31285
395.61822
395.91215
396.19486
396.4666
396.72756
396.97797
397.21802
397.44789
397.66777
397.87783
398.07824
398.26916
398.45074
398.62314
398.78649
398.94093
399.08659
399.2236
399.35208
399.47216
399.58394
399.68753
399.78305
399.8706
399.95027
400.02216
400.08638
400.143
400.19212
400.23383
400.2682
400.29533
400.31528
400.32814
400.33397
400.33287
400.32488
400.3101
400.28857
400.26038
400.22558
400.18424
400.13642
400.08218
400.02158
399.95468
399.88154
399.80221
399.71676
399.62522
399.52766
399.42413
399.31468
399.19937
399.07823
398.95133
398.8187
398.68041
398.53649
398.38699
398.23196
398.07144
397.90548
397.73413
397.55742
397.3754
397.18812
396.99561
396.79792
396.59508
396.38715
396.17416
395.95616
395.73317
395.50525
395.27242
395.03474
394.79223
394.54494
394.2929
394.03615
393.77473
393.50868
393.23802
392.9628
392.68305
392.3988
392.11009
391.81696
391.51943
391.21754
390.91132
390.60081
390.28603
389.96702
389.6438
389.31641
388.98488
388.64923
388.30949
387.96569
387.61786
387.26601
386.91019
386.55041
386.18669
385.81906
385.44754
385.07215
384.69292
384.30986
383.92299
383.53234
383.1379
382.73972
382.33779
381.93213
381.52276
381.10969
380.69293
380.27249
379.84838
379.4206
378.98917
378.55409
378.11537
377.67301
377.227
376.77736
376.32409
375.86717
373.45368
374.35864
375.25655
376.14322
377.01514
377.86952
378.70432
379.51809
380.30995
381.07942
381.82638
382.55092
383.25331
383.93396
384.59334
385.23198
385.85044
386.44927
387.02905
387.59033
388.13365
388.65956
389.16854
389.6611
390.13769
390.59876
391.04475
391.47604
391.89304
392.2961
392.68557
393.0618
393.42509
393.77575
394.11407
394.44031
394.75475
395.05764
395.3492
395.62967
395.89927
396.15821
396.40668
396.64488
396.87299
397.09118
397.29963
397.4985
397.68794
397.86811
398.03914
398.20119
398.35437
398.49882
398.63467
398.76203
398.88102
398.99176
399.09435
399.18889
399.27549
399.35426
399.42527
399.48863
399.54442
399.59274
399.63367
399.66728
399.69367
399.7129
399.72506
399.73022
399.72845
399.71982
399.70441
399.68227
399.65347
399.61809
399.57617
399.52779
399.473
399.41186
399.34444
399.27078
399.19094
399.10498
399.01296
398.91492
398.81092
398.701
398.58523
398.46364
398.33629
398.20323
398.0645
397.92016
397.77024
397.61479
397.45386
397.2875
397.11575
396.93864
396.75624
396.56857
396.37568
396.17761
395.9744
395.7661
395.55275
395.33438
395.11104
394.88276
394.64959
394.41156
394.16871
393.92108
393.66871
393.41163
393.14988
392.88351
392.61253
392.33699
392.05693
391.77238
391.48337
391.18993
390.89211
390.58993
390.28343
389.97264
389.65759
389.3383
389.01482
388.68717
388.35539
388.01949
387.67951
387.33547
386.98741
386.63534
386.2793
385.91931
385.55538
385.18756
384.81585
384.44028
384.06088
383.67765
383.29062
382.89981
382.50524
382.10692
381.70487
381.29909
380.88962
380.47645
380.0596
379.63908
379.2149
378.78706
378.35558
377.92047
377.48171
377.03933
376.59332
376.14369
375.69042
375.23354
373.43245
374.29539
375.15253
376.00039
376.83591
377.65658
378.46042
379.24597
380.01221
380.75849
381.48447
382.19004
382.87526
383.54034
384.18559
384.81138
385.4181
386.00622
386.57618
387.12844
387.66346
388.1817
388.6836
389.16959
389.64008
390.09548
390.53617
390.96252
391.37489
391.77361
392.15901
392.53141
392.89109
393.23835
393.57345
393.89666
394.20822
394.50837
394.79734
395.07535
395.34261
395.59931
395.84566
396.08183
396.308
396.52434
396.73102
396.92819
397.116
397.29461
397.46414
397.62474
397.77654
397.91966
398.05422
398.18034
398.29814
398.40773
398.5092
398.60267
398.68824
398.76599
398.83603
398.89844
398.95332
399.00075
399.04081
399.07359
399.09916
399.1176
399.12899
399.1334
399.13089
399.12155
399.10544
399.08262
399.05316
399.01712
398.97457
398.92557
398.87017
398.80843
398.74042
398.66619
398.58579
398.49928
398.40671
398.30814
398.20361
398.09318
397.9769
397.85481
397.72697
397.59342
397.45421
397.3094
397.15901
397.00311
396.84173
396.67491
396.50272
396.32518
396.14233
395.95424
395.76092
395.56244
395.35882
395.15011
394.93635
394.71758
394.49384
394.26518
394.03161
393.7932
393.54997
393.30197
393.04922
392.79178
392.52967
392.26293
391.9916
391.71571
391.4353
391.15041
390.86106
390.5673
390.26915
389.96665
389.65983
389.34873
389.03337
388.71379
388.39001
388.06207
387.73
387.39383
387.05358
386.70928
386.36096
386.00864
385.65236
385.29213
384.92798
384.55994
384.18802
383.81225
383.43265
383.04924
382.66203
382.27106
381.87632
381.47785
381.07566
380.66976
380.26016
379.84688
379.42993
379.00933
378.58507
378.15717
377.72563
377.29047
376.85169
376.40929
375.96327
375.51364
375.06039
374.60353
373.41318
374.23791
375.05781
375.86991
376.67154
377.46046
378.23481
378.99317
379.73443
380.45787
381.16298
381.8495
382.51734
383.16656
383.79731
384.40982
385.00439
385.58133
386.141
386.68379
387.21006
387.72019
388.21458
388.69358
389.15757
389.60691
390.04193
390.46299
390.87038
391.26444
391.64546
392.01373
392.36952
392.7131
393.04473
393.36465
393.67309
393.97028
394.25645
394.53179
394.7965
395.05078
395.29481
395.52878
395.75284
395.96716
396.17191
396.36723
396.55327
396.73017
396.89807
397.0571
397.20739
397.34905
397.48221
397.60698
397.72348
397.83181
397.93207
398.02436
398.10879
398.18544
398.25441
398.31579
398.36967
398.41613
398.45525
398.4871
398.51178
398.52936
398.5399
398.54348
398.54018
398.53005
398.51317
398.48961
398.45942
398.42267
398.37942
398.32974
398.27367
398.21128
398.14263
398.06777
397.98675
397.89964
397.80647
397.70731
397.60221
397.49121
397.37437
397.25173
397.12335
396.98927
396.84954
396.7042
396.55331
396.3969
396.23502
396.06771
395.89503
395.71701
395.53369
395.34512
395.15134
394.9524
394.74833
394.53917
394.32496
394.10575
393.88158
393.65248
393.41849
393.17966
392.93601
392.68759
392.43444
392.17659
391.91408
391.64695
391.37523
391.09895
390.81816
390.53289
390.24318
389.94905
389.65054
389.34768
389.04052
388.72907
388.41338
388.09346
387.76936
387.44111
387.10873
386.77225
386.4317
386.08711
385.73851
385.38592
385.02937
384.66888
384.30448
383.9362
383.56404
383.18805
382.80823
382.42462
382.03722
381.64606
381.25115
380.85251
380.45016
380.04412
379.63439
379.22099
378.80393
378.38323
377.95888
377.53091
377.09931
376.6641
376.22528
375.78286
375.33683
374.8872
374.43397
373.97714
373.39555
374.18527
374.9709
375.74988
376.51988
377.2789
378.02521
378.75744
379.4745
380.17556
380.86007
381.52763
382.17805
382.81125
383.42727
384.02622
384.60829
385.1737
385.72273
386.25565
386.77278
387.27444
387.76093
388.23258
388.68972
389.13265
389.56167
389.9771
390.37922
390.76832
391.14466
391.50852
391.86016
392.19981
392.52771
392.84411
393.14921
393.44323
393.72638
393.99884
394.26082
394.5125
394.75404
394.98563
395.20741
395.41957
395.62223
395.81555
395.99968
396.17474
396.34088
396.49821
396.64686
396.78695
396.91859
397.0419
397.15699
397.26395
397.36289
397.45391
397.53711
397.61257
397.68039
397.74065
397.79344
397.83884
397.87694
397.9078
397.93151
397.94814
397.95777
397.96046
397.95628
397.94531
397.9276
397.90322
397.87224
397.83472
397.79071
397.74029
397.6835
397.6204
397.55105
397.4755
397.39381
397.30604
397.21223
397.11243
397.0067
396.89509
396.77764
396.65441
396.52543
396.39077
396.25047
396.10457
395.95311
395.79615
395.63373
395.46589
395.29268
395.11413
394.9303
394.74122
394.54693
394.34749
394.14292
393.93327
393.71858
393.49889
393.27424
393.04467
392.81022
392.57092
392.32682
392.07795
391.82435
391.56606
391.30311
391.03555
390.7634
390.48671
390.20551
389.91983
389.6297
389.33518
389.03627
388.73303
388.42549
388.11366
387.7976
387.47733
387.15287
386.82427
386.49155
386.15473
385.81386
385.46895
385.12004
384.76715
384.41031
384.04954
383.68487
383.31632
382.94391
382.56767
382.18762
381.80378
381.41616
381.0248
380.6297
380.23088
379.82837
379.42216
379.01229
378.59876
378.18158
377.76076
377.33632
376.90827
376.47661
376.04134
375.60248
375.16003
374.71399
374.26436
373.81115
373.35436
373.37931
374.13673
374.89064
375.63881
376.37922
377.11004
377.8297
378.53689
379.23054
379.90982
380.5741
381.22292
381.85598
382.47313
383.07429
383.6595
384.22884
384.78246
385.32055
385.84331
386.35099
386.84384
387.32212
387.78611
388.23607
388.67228
389.09501
389.50453
389.90108
390.28494
390.65635
391.01555
391.36277
391.69826
392.02222
392.33486
392.63641
392.92705
393.20698
393.47639
393.73545
393.98434
394.22323
394.45227
394.67163
394.88145
395.08189
395.27308
395.45515
395.62824
395.79248
395.94799
396.09489
396.23329
396.36331
396.48505
396.59862
396.70411
396.80164
396.8913
396.97317
397.04735
397.11392
397.17298
397.2246
397.26887
397.30586
397.33565
397.35832
397.37393
397.38257
397.3843
397.37918
397.36729
397.34869
397.32344
397.29161
397.25325
397.20843
397.1572
397.09963
397.03576
396.96566
396.88938
396.80696
396.71848
396.62396
396.52348
396.41707
396.3048
396.18669
396.06281
395.93321
395.79792
395.657
395.51048
395.35843
395.20087
395.03787
394.86945
394.69566
394.51655
394.33215
394.14252
393.94768
393.7477
393.54259
393.33241
393.1172
392.89699
392.67182
392.44174
392.20678
391.96699
391.72239
391.47304
391.21896
390.96019
390.69677
390.42874
390.15613
389.87898
389.59732
389.3112
389.02064
388.72568
388.42635
388.12269
387.81473
387.5025
387.18603
386.86537
386.54053
386.21155
385.87845
385.54128
385.20005
384.8548
384.50556
384.15234
383.79518
383.4341
383.06913
382.70029
382.32761
381.9511
381.57079
381.18671
380.79886
380.40728
380.01197
379.61295
379.21025
378.80388
378.39385
377.98017
377.56286
377.14193
376.71738
376.28924
375.8575
375.42218
374.98327
374.54079
374.09473
373.64511
373.19192
372.73515
373.36424
374.0917
374.81611
375.53552
376.24814
376.95233
377.64666
378.32988
379.00097
379.65909
380.30358
380.93395
381.54983
382.15099
382.73728
383.30865
383.86512
384.40676
384.93369
385.44605
385.94402
386.4278
386.89761
387.35366
387.79618
388.2254
388.64157
389.0449
389.43564
389.81402
390.18024
390.53455
390.87714
391.20823
391.52803
391.83672
392.13451
392.42158
392.69811
392.96428
393.22025
393.46619
393.70225
393.9286
394.14538
394.35273
394.5508
394.73971
394.9196
395.0906
395.25282
395.40639
395.55142
395.68802
395.8163
395.93636
396.04831
396.15225
396.24827
396.33646
396.41692
396.48972
396.55497
396.61274
396.66311
396.70616
396.74198
396.77062
396.79217
396.8067
396.81428
396.81498
396.80886
396.79599
396.77643
396.75025
396.7175
396.67825
396.63255
396.58047
396.52205
396.45736
396.38645
396.30938
396.22619
396.13694
396.04168
395.94045
395.83332
395.72033
395.60152
395.47695
395.34666
395.2107
395.06911
394.92195
394.76924
394.61105
394.44741
394.27837
394.10396
393.92424
393.73924
393.54901
393.35359
393.15302
392.94734
392.73659
392.52081
392.30004
392.07432
391.84369
391.60819
391.36786
391.12273
390.87285
390.61825
390.35896
390.09504
389.8265
389.55339
389.27575
388.99361
388.70701
388.41597
388.12055
387.82076
387.51664
387.20824
386.89557
386.57867
386.25758
385.93233
385.60294
385.26945
384.93188
384.59027
384.24465
383.89504
383.54147
383.18397
382.82255
382.45726
382.08811
381.71513
381.33833
380.95775
380.5734
380.1853
379.79348
379.39794
378.99871
378.59581
378.18925
377.77905
377.36521
376.94776
376.5267
376.10205
375.6738
375.24198
374.80659
374.36764
373.92512
373.47905
373.02943
372.57625
372.11952
373.35021
374.04973
374.74657
375.43903
376.12549
376.80449
377.47471
378.135
378.78436
379.42198
380.0472
380.65947
381.25841
381.84371
382.41518
382.9727
383.51623
384.04578
384.56139
385.06318
385.55125
386.02575
386.48685
386.93473
387.36958
387.79158
388.20095
388.59788
388.98257
389.35523
389.71606
390.06525
390.403
390.7295
391.04494
391.34949
391.64334
391.92665
392.19961
392.46236
392.71508
392.95791
393.191
393.4145
393.62856
393.8333
394.02886
394.21536
394.39295
394.56172
394.72181
394.87332
395.01637
395.15106
395.2775
395.39579
395.50603
395.60831
395.70272
395.78936
395.86831
395.93967
396.0035
396.0599
396.10894
396.1507
396.18526
396.21269
396.23305
396.24643
396.25288
396.25248
396.24529
396.23137
396.21079
396.18361
396.14989
396.10969
396.06306
396.01006
395.95075
395.88518
395.81341
395.73549
395.65148
395.56141
395.46535
395.36334
395.25543
395.14167
395.02212
394.89681
394.76579
394.62911
394.48681
394.33894
394.18555
394.02667
393.86236
393.69265
393.51758
393.33721
393.15157
392.9607
392.76465
392.56346
392.35716
392.14579
391.92941
391.70804
391.48173
391.25051
391.01443
390.77352
390.52783
390.27738
390.02222
389.76238
389.49791
389.22883
388.95519
388.67703
388.39436
388.10724
387.8157
387.51977
387.21949
386.91489
386.606
386.29286
385.97551
385.65396
385.32826
384.99843
384.66451
384.32653
383.98451
383.63848
383.28848
382.93453
382.57666
382.21489
381.84925
381.47977
381.10646
380.72935
380.34847
379.96384
379.57547
379.18338
378.78761
378.38815
377.98503
377.57827
377.16788
376.75388
376.33627
375.91507
375.49029
375.06194
374.63004
374.19457
373.75556
373.31301
372.86692
372.41729
371.96414
371.50745
373.33708
374.01043
374.68142
375.34853
376.01031
376.66544
377.3127
377.95103
378.5795
379.19729
379.80375
380.39833
380.98061
381.55026
382.10702
382.65074
383.18132
383.69872
384.20294
384.69402
385.17204
385.6371
386.08932
386.52884
386.95582
387.3704
387.77277
388.16309
388.54154
388.90829
389.26351
389.6074
389.94012
390.26184
390.57273
390.87296
391.16269
391.44209
391.7113
391.97049
392.2198
392.45936
392.68934
392.90985
393.12105
393.32304
393.51597
393.69995
393.8751
394.04154
394.19937
394.34872
394.48968
394.62236
394.74686
394.86327
394.9717
395.07222
395.16494
395.24994
395.32731
395.39712
395.45947
395.51442
395.56205
395.60245
395.63568
395.66181
395.68092
395.69307
395.69833
395.69677
395.68844
395.67342
395.65176
395.62352
395.58877
395.54755
395.49993
395.44597
395.38571
395.31921
395.24653
395.16771
395.08281
394.99188
394.89496
394.79212
394.68339
394.56882
394.44847
394.32237
394.19057
394.05313
393.91008
393.76147
393.60734
393.44773
393.2827
393.11228
392.93652
392.75545
392.56912
392.37758
392.18085
391.97899
391.77204
391.56002
391.34299
391.12099
390.89404
390.6622
390.4255
390.18398
389.93767
389.68662
389.43087
389.17044
388.90539
388.63573
388.36152
388.08279
387.79957
387.5119
387.21982
386.92336
386.62255
386.31742
386.00803
385.69438
385.37653
385.05449
384.72831
384.39802
384.06364
383.7252
383.38275
383.03629
382.68587
382.33152
381.97325
381.6111
381.24509
380.87524
380.50159
380.12415
379.74295
379.35801
378.96935
378.57699
378.18095
377.78124
377.3779
376.97092
376.56033
376.14614
375.72837
375.30702
374.88211
374.45365
374.02164
373.5861
373.14703
372.70444
372.25832
371.80869
371.35555
370.8989
373.32474
373.9735
374.62016
375.26335
375.90178
376.53424
377.15963
377.77694
378.3853
378.98393
379.57218
380.1495
380.71546
381.26968
381.81191
382.34193
382.8596
383.36484
383.85761
384.33792
384.80579
385.26128
385.70448
386.1355
386.55444
386.96144
387.35664
387.74017
388.1122
388.47286
388.82231
389.16072
389.48823
389.805
390.11118
390.40693
390.69239
390.96771
391.23303
391.4885
391.73425
391.97042
392.19713
392.41453
392.62273
392.82186
393.01203
393.19336
393.36596
393.52995
393.68543
393.8325
393.97128
394.10184
394.2243
394.33874
394.44526
394.54395
394.63489
394.71816
394.79386
394.86205
394.92282
394.97625
395.0224
395.06136
395.09319
395.11796
395.13575
395.14661
395.15061
395.14782
395.1383
395.1221
395.0993
395.06995
395.0341
394.99182
394.94315
394.88816
394.8269
394.75942
394.68577
394.60601
394.52017
394.42833
394.33052
394.22678
394.11718
394.00176