/*--------------------------------*- C++ -*----------------------------------*\
| =========                 |                                                 |
| \\      /  F ield         | OpenFOAM: The Open Source CFD Toolbox           |
|  \\    /   O peration     | Version:  v1606+                                |
|   \\  /    A nd           | Web:      www.OpenFOAM.com                      |
|    \\/     M anipulation  |                                                 |
\*---------------------------------------------------------------------------*/
FoamFile
{
    version     2.0;
    format      ascii;
    class       volScalarField;
    location    "0.12/Shaded";
    object      T;
}
// * * * * * * * * * * * * * * * * * * * * * * * * * * * * * * * * * * * * * //

dimensions      [0 0 0 1 0 0 0];

internalField   nonuniform List<scalar> 
4320
(
346.74521
346.27869
345.8085
345.33494
344.85853
344.3797
343.89877
343.41601
342.93161
342.44576
341.95859
341.47021
340.98074
340.49024
339.99881
339.50648
339.01333
338.51938
338.02467
337.52922
337.03305
336.53618
336.0386
335.54032
335.04133
334.54162
334.04118
333.53997
333.03799
332.5352
332.03157
331.52706
331.02164
330.51526
330.0079
329.49949
328.98999
328.47935
327.96753
327.45448
326.94013
326.42444
325.90735
325.38881
324.86876
324.34715
323.82392
323.29903
322.7724
322.24399
321.71374
321.18161
320.64753
320.11145
319.57331
319.03308
318.49068
317.94608
317.3992
316.85
316.29841
315.74437
315.18781
314.62864
314.06677
313.50206
312.93433
312.36332
311.78858
311.20916
310.6227
310.02165
346.23514
345.75947
345.28268
344.8041
344.32363
343.84139
343.35751
342.87217
342.3855
341.89764
341.4087
340.91879
340.42798
339.93636
339.44398
338.95091
338.45719
337.96286
337.46794
336.97245
336.47642
335.97984
335.48273
334.98507
334.48686
333.98809
333.48873
332.98875
332.48815
331.98687
331.48489
330.98217
330.47866
329.97433
329.46912
328.96299
328.45588
327.94774
327.43852
326.92816
326.41661
325.9038
325.38967
324.87417
324.35724
323.8388
323.31881
322.7972
322.27391
321.74887
321.22202
320.6933
320.16265
319.62999
319.09527
318.55841
318.01935
317.47801
316.93431
316.38817
315.83948
315.28815
314.73403
314.17698
313.61679
313.05319
312.48578
311.91399
311.33687
310.75275
310.15851
309.5482
345.72288
345.24025
344.75753
344.27399
343.78935
343.30352
342.81653
342.32845
341.83937
341.34938
340.85857
340.36702
339.87479
339.38197
338.8886
338.39474
337.90041
337.40566
336.9105
336.41496
335.91905
335.42277
334.92612
334.4291
333.93168
333.43386
332.9356
332.43689
331.93769
331.43797
330.93768
330.43679
329.93524
329.43299
328.93
328.4262
327.92153
327.41595
326.90939
326.40179
325.89309
325.38322
324.87212
324.35972
323.84596
323.33077
322.81408
322.29582
321.77592
321.25432
320.73093
320.2057
319.67854
319.14938
318.61813
318.08473
317.54907
317.01108
316.47064
315.92764
315.38197
314.83346
314.28195
313.72722
313.16898
312.60686
312.04035
311.46871
310.89086
310.30512
309.70899
309.09893
345.20822
344.71998
344.23203
343.74384
343.25509
342.76564
342.27545
341.78453
341.29293
340.80071
340.30794
339.81467
339.32097
338.82688
338.33246
337.83775
337.34278
336.84759
336.35218
335.85657
335.36077
334.86479
334.36861
333.87223
333.37562
332.87877
332.38165
331.88423
331.38648
330.88835
330.3898
329.89078
329.39124
328.89114
328.39041
327.889
327.38684
326.88387
326.38004
325.87526
325.36947
324.86262
324.35461
323.84538
323.33487
322.82299
322.30967
321.79484
321.27841
320.76032
320.24047
319.7188
319.19521
318.66962
318.14194
317.61207
317.07991
316.54536
316.0083
315.46858
314.92606
314.38056
313.83187
313.27972
312.7238
312.16367
311.59878
311.02837
310.45143
309.86657
309.27201
308.66577
344.69137
344.19828
343.70563
343.21307
342.72034
342.22729
341.73388
341.24007
340.74589
340.25137
339.75656
339.26151
338.76626
338.27086
337.77535
337.27976
336.78412
336.28845
335.79277
335.29709
334.8014
334.30572
333.81002
333.31429
332.81852
332.32267
331.82672
331.33063
330.83436
330.33787
329.8411
329.34401
328.84655
328.34864
327.85024
327.35128
326.85169
326.35141
325.85037
325.34849
324.84569
324.34192
323.83708
323.33111
322.82391
322.31542
321.80556
321.29423
320.78135
320.26685
319.75063
319.2326
318.71267
318.19074
317.66672
317.14049
316.61195
316.08096
315.5474
315.01111
314.47192
313.92964
313.38402
312.83479
312.28159
311.724
311.16147
310.5933
310.01863
309.4364
308.8454
308.24447
344.17249
343.67497
343.17797
342.68128
342.1847
341.68812
341.19148
340.69476
340.19795
339.70108
339.20418
338.70729
338.21045
337.71369
337.21704
336.72054
336.2242
335.72804
335.23208
334.73632
334.24075
333.74537
333.25017
332.75512
332.26021
331.7654
331.27065
330.77593
330.28119
329.78638
329.29146
328.79635
328.30101
327.80538
327.30937
326.81293
326.31599
325.81846
325.32029
324.82138
324.32165
323.82104
323.31946
322.81681
322.31303
321.80801
321.30168
320.79394
320.28471
319.77389
319.26138
318.74709
318.23092
317.71276
317.1925
316.67003
316.14522
315.61793
315.08803
314.55534
314.01968
313.48084
312.93858
312.3926
311.84256
311.28804
310.72855
310.16348
309.59213
309.01371
308.4274
307.83251
343.65167
343.14995
342.64883
342.14817
341.64785
341.14779
340.64795
340.14829
339.64882
339.14956
338.65054
338.15177
337.65329
337.15513
336.65731
336.15987
335.66281
335.16616
334.66991
334.17406
333.67862
333.18356
332.68887
332.19453
331.7005
331.20676
330.71326
330.21996
329.7268
329.23374
328.74071
328.24766
327.75451
327.26121
326.76767
326.27383
325.7796
325.28492
324.78969
324.29383
323.79727
323.29991
322.80166
322.30244
321.80215
321.3007
320.798
320.29395
319.78845
319.28141
318.77272
318.26227
317.74997
317.23569
316.71931
316.20072
315.67978
315.15634
314.63026
314.10135
313.56943
313.03428
312.49566
311.95327
311.4068
310.85585
310.29999
309.73871
309.17146
308.59764
308.01671
307.42822
343.12894
342.62315
342.11803
341.61351
341.10952
340.60602
340.10298
339.60039
339.09824
338.59656
338.09536
337.59467
337.09452
336.59493
336.09593
335.59753
335.09974
334.60257
334.10603
333.61011
333.1148
332.62008
332.12593
331.63233
331.13923
330.6466
330.15439
329.66255
329.17104
328.67978
328.18871
327.69778
327.2069
326.71601
326.22502
325.73385
325.24243
324.75067
324.25848
323.76577
323.27245
322.77843
322.28362
321.78791
321.29121
320.79343
320.29446
319.7942
319.29254
318.78938
318.28462
317.77813
317.2698
316.75952
316.24716
315.73259
315.21566
314.69623
314.17413
313.6492
313.12123
312.59002
312.05531
311.51685
310.97432
310.42738
309.87565
309.31871
308.75612
308.18746
307.61232
307.03044
342.60429
342.09447
341.58541
341.07708
340.56947
340.06255
339.55632
339.05077
338.54592
338.04179
337.5384
337.03576
336.53391
336.03287
335.53265
335.03327
334.53474
334.03706
333.54023
333.04424
332.54908
332.05473
331.56115
331.06831
330.57618
330.08471
329.59385
329.10354
328.61373
328.12434
327.63532
327.14657
326.65804
326.16964
325.68128
325.19288
324.70435
324.21561
323.72655
323.23708
322.74711
322.25653
321.76525
321.27316
320.78016
320.28615
319.79101
319.29465
318.79694
318.29778
317.79706
317.29465
316.79043
316.28427
315.77606
315.26564
314.75287
314.23761
313.71968
313.19892
312.67512
312.14808
311.61756
311.08332
310.54508
310.00252
309.45533
308.90316
308.34567
307.78253
307.21347
306.6383
342.07766
341.56381
341.05082
340.53871
340.02748
339.51714
339.0077
338.49919
337.99162
337.485
336.97938
336.47477
335.97119
335.46867
334.96722
334.46686
333.96758
333.46939
332.97228
332.47624
331.98126
331.48729
330.99432
330.5023
330.01118
329.52093
329.03147
328.54275
328.05471
327.56727
327.08035
326.59389
326.10778
325.62196
325.13632
324.65079
324.16525
323.67962
323.19379
322.70767
322.22114
321.73411
321.24647
320.75811
320.26892
319.77879
319.28761
318.79525
318.30162
317.80658
317.31001
316.8118
316.31182
315.80993
315.30599
314.79988
314.29144
313.78051
313.26693
312.75052
312.2311
311.70846
311.18239
310.65265
310.11898
309.58114
309.03882
308.49176
307.93969
307.38235
306.81954
306.25115
341.54898
341.03106
340.51412
339.9982
339.48333
338.96955
338.45689
337.94538
337.43505
336.92593
336.41805
335.91144
335.40611
334.90209
334.3994
333.89804
333.39801
332.89932
332.40195
331.90588
331.41109
330.91755
330.42522
329.93406
329.44402
328.95503
328.46705
327.97999
327.4938
327.00838
326.52366
326.03956
325.55598
325.07283
324.59002
324.10744
323.625
323.14259
322.6601
322.17743
321.69447
321.2111
320.72721
320.2427
319.75743
319.2713
318.78419
318.29597
317.80653
317.31573
316.82346
316.32958
315.83396
315.33647
314.83697
314.33531
313.83135
313.32492
312.81586
312.304
311.78916
311.27114
310.74975
310.22475
309.69594
309.16307
308.62591
308.08424
307.53782
306.98647
306.43004
305.86845
341.01814
340.49608
339.97513
339.45535
338.93681
338.41956
337.90363
337.38909
336.87597
336.36431
335.85414
335.3455
334.8384
334.33287
333.82892
333.32656
332.82579
332.3266
331.82898
331.33291
330.83835
330.34528
329.85364
329.3634
328.87448
328.38684
327.9004
327.41508
326.93081
326.44751
325.96508
325.48344
325.00248
324.52211
324.04222
323.56272
323.08348
322.6044
322.12537
321.64627
321.16698
320.6874
320.20739
319.72684
319.24562
318.76362
318.2807
317.79675
317.31162
316.8252
316.33736
315.84795
315.35684
314.8639
314.36897
313.87192
313.37259
312.87083
312.36647
311.85935
311.34928
310.83609
310.31958
309.79956
309.27583
308.74818
308.2164
307.68032
307.13974
306.59453
306.04457
305.4898
340.48502
339.95873
339.43369
338.90999
338.38771
337.86692
337.34769
336.83007
336.31412
335.79987
335.28738
334.77667
334.26778
333.76072
333.25551
332.75215
332.25064
331.75097
331.25313
330.75708
330.2628
329.77024
329.27935
328.79008
328.30236
327.81613
327.33131
326.84782
326.36557
325.88448
325.40444
324.92536
324.44713
323.96964
323.4928
323.01647
322.54056
322.06493
321.58948
321.11407
320.63859
320.16292
319.68691
319.21046
318.73342
318.25568
317.77709
317.29753
316.81687
316.33496
315.85168
315.36688
314.88042
314.39217
313.90198
313.40969
312.91516
312.41823
311.91874
311.41653
310.91142
310.40325
309.89183
309.37698
308.85853
308.33629
307.8101
307.27978
306.7452
306.20623
305.6628
305.11485
339.94948
339.41885
338.88962
338.36191
337.83581
337.31142
336.78881
336.26805
335.74921
335.23234
334.71749
334.20469
333.69398
333.18538
332.6789
332.17454
331.6723
331.17218
330.67414
330.17815
329.68419
329.19219
328.70211
328.21388
327.72744
327.2427
326.75959
326.27801
325.79788
325.3191
324.84155
324.36514
323.88976
323.41528
322.9416
322.46858
321.99611
321.52407
321.05232
320.58074
320.1092
319.63757
319.1657
318.69348
318.22076
317.74741
317.27329
316.79827
316.32221
315.84496
315.36638
314.88634
314.40469
313.92128
313.43596
312.9486
312.45902
311.96709
311.47264
310.97551
310.47554
309.97256
309.46641
308.95692
308.44394
307.92729
307.40683
306.88242
306.35394
305.82131
305.28444
304.74332
339.41136
338.87625
338.34272
337.81088
337.28088
336.75279
336.22673
335.70277
335.18099
334.66144
334.14419
333.62927
333.11671
332.60655
332.09879
331.59345
331.0905
330.58994
330.09173
329.59585
329.10225
328.61088
328.12167
327.63456
327.14947
326.66632
326.18501
325.70546
325.22755
324.75118
324.27625
323.80263
323.33021
322.85887
322.38847
321.9189
321.45001
320.98169
320.51379
320.04617
319.5787
319.11125
318.64367
318.17582
317.70757
317.23876
316.76926
316.29892
315.8276
315.35515
314.88143
314.4063
313.9296
313.45119
312.97091
312.48862
312.00416
311.51739
311.02814
310.53626
310.04159
309.54397
309.04326
308.5393
308.03193
307.52102
307.00644
306.48806
305.96579
305.43955
304.90928
304.37497
338.8705
338.33075
337.79277
337.2567
336.72267
336.19079
335.66119
335.13395
334.60915
334.08687
333.56717
333.05009
332.53567
332.02394
331.51491
331.00857
330.50493
330.00396
329.50563
329.00991
328.51673
328.02605
327.53779
327.05188
326.56824
326.08676
325.60736
325.12994
324.65437
324.18054
323.70834
323.23765
322.76833
322.30025
321.83328
321.36728
320.90212
320.43766
319.97375
319.51024
319.047
318.58388
318.12073
317.65741
317.19377
316.72965
316.26491
315.79941
315.33299
314.8655
314.39679
313.92672
313.45513
312.98187
312.50678
312.02973
311.55055
311.06909
310.5852
310.09873
309.60952
309.11743
308.62232
308.12402
307.62242
307.11739
306.6088
306.09655
305.58056
305.06076
304.53712
304.00961
338.3267
337.78215
337.23957
336.69911
336.16093
335.62515
335.0919
334.56129
334.03341
333.50834
332.98614
332.46687
331.95056
331.43724
330.92693
330.41962
329.91531
329.41396
328.91555
328.42004
327.92735
327.43743
326.95021
326.46559
325.98349
325.5038
325.02642
324.55124
324.07813
323.60698
323.13765
322.67001
322.20393
321.73926
321.27586
320.8136
320.35231
319.89186
319.43209
318.97285
318.51399
318.05536
317.5968
317.13816
316.67929
316.22002
315.76021
315.2997
314.83833
314.37596
313.91242
313.44757
312.98124
312.51329
312.04356
311.5719
311.09815
310.62217
310.1438
309.66289
309.1793
308.69289
308.2035
307.71103
307.21532
306.71628
306.21379
305.70776
305.19812
304.68481
304.1678
303.64708
337.77975
337.23022
336.68286
336.13786
335.59539
335.05558
334.51858
333.98451
333.45346
332.92552
332.40077
331.87926
331.36104
330.84612
330.33453
329.82627
329.32131
328.81963
328.32119
327.82594
327.33382
326.84475
326.35865
325.87542
325.39497
324.91719
324.44195
323.96914
323.49863
323.03028
322.56397
322.09953
321.63684
321.17573
320.71607
320.25769
319.80044
319.34416
318.8887
318.43389
317.97958
317.5256
317.07179
316.618
316.16405
315.7098
315.25508
314.79973
314.34358
313.88649
313.42828
312.96881
312.50791
312.04543
311.58122
311.11511
310.64695
310.1766
309.7039
309.22871
308.75088
308.27028
307.78678
307.30024
306.81055
306.3176
305.8213
305.32157
304.81833
304.31155
303.80119
303.28724
337.22944
336.67472
336.1224
335.57269
335.02577
334.48179
333.94092
333.40327
332.86896
332.33809
331.81073
331.28694
330.76677
330.25025
329.73739
329.22818
328.72261
328.22064
327.72223
327.22732
326.73584
326.24771
325.76284
325.28111
324.80243
324.32667
323.85371
323.38341
322.91564
322.45026
321.9871
321.52603
321.06689
320.60951
320.15374
319.69941
319.24637
318.79444
318.34345
317.89324
317.44364
316.99449
316.54561
316.09684
315.648
315.19893
314.74947
314.29944
313.84869
313.39704
312.94434
312.49041
312.03511
311.57826
311.11972
310.65932
310.19691
309.73234
309.26547
308.79614
308.32422
307.84958
307.37208
306.8916
306.40804
305.92129
305.43127
304.9379
304.44111
303.94088
303.43718
302.92999
336.67554
336.1154
335.55791
335.0033
334.45176
333.90346
333.35858
332.81724
332.27958
331.74569
331.21566
330.68955
330.16741
329.64927
329.13514
328.62502
328.11887
327.61667
327.11835
326.62386
326.13311
325.64602
325.16248
324.68238
324.2056
323.732
323.26146
322.79383
322.32895
321.86668
321.40686
320.94932
320.49389
320.04042
319.58872
319.13862
318.68996
318.24255
317.79622
317.3508
316.9061
316.46195
316.01817
315.5746
315.13105
314.68734
314.24332
313.79879
313.3536
312.90758
312.46054
312.01234
311.56279
311.11175
310.65904
310.20452
309.74802
309.28939
308.82849
308.36517
307.8993
307.43074
306.95937
306.48507
306.00774
305.52728
305.04362
304.55667
304.06638
303.57273
303.07568
302.57525
336.11777
335.55198
334.98911
334.42939
333.87304
333.32026
332.77122
332.22607
331.68495
331.14796
330.61519
330.08672
329.56258
329.04282
328.52743
328.01642
327.50974
327.00735
326.50921
326.01522
325.52531
325.03937
324.55729
324.07894
323.6042
323.13292
322.66495
322.20014
321.73833
321.27935
320.82303
320.3692
319.91768
319.46829
319.02084
318.57517
318.13108
317.68838
317.2469
316.80644
316.36683
315.92787
315.48939
315.05121
314.61312
314.17497
313.73657
313.29773
312.85828
312.41806
311.97687
311.53456
311.09095
310.64587
310.19917
309.75068
309.30025
308.84772
308.39294
307.93578
307.47609
307.01374
306.54862
306.08061
305.60962
305.13553
304.65829
304.17782
303.69408
303.20702
302.71664
302.22294
335.55588
334.98417
334.41567
333.85062
333.28927
332.73183
332.17847
331.62938
331.08468
330.5445
330.00893
329.47804
328.95189
328.4305
327.91387
327.40199
326.89484
326.39234
325.89445
325.40107
324.9121
324.42743
323.94694
323.47049
322.99794
322.52914
322.06392
321.60211
321.14354
320.68803
320.23541
319.78548
319.33805
318.89294
318.44995
318.00889
317.56957
317.13179
316.69535
316.26007
315.82574
315.39218
314.95919
314.52658
314.09416
313.66175
313.22916
312.7962
312.36268
311.92844
311.49328
311.05704
310.61954
310.18061
309.74008
309.2978
308.85359
308.40731
307.95881
307.50794
307.05457
306.59857
306.13982
305.6782
305.21363
304.74601
304.27526
303.80133
303.32416
302.84372
302.36001
301.87302
334.98957
334.41166
333.83727
333.26666
332.70008
332.13778
331.57994
331.02676
330.47837
329.9349
329.39646
328.86312
328.33492
327.8119
327.29405
326.78136
326.27378
325.77125
325.2737
324.78103
324.29313
323.80988
323.33113
322.85674
322.38655
321.92039
321.4581
320.99947
320.54434
320.09251
319.64378
319.19795
318.75483
318.31421
317.87588
317.43965
317.00531
316.57265
316.14147
315.71156
315.28272
314.85476
314.42747
314.00065
313.5741
313.14763
312.72104
312.29415
311.86676
311.43869
311.00976
310.57977
310.14856
309.71595
309.28177
308.84585
308.40803
307.96816
307.52608
307.08165
306.63474
306.18521
305.73294
305.27783
304.81978
304.35869
303.89451
303.42716
302.9566
302.4828
302.00575
301.52546
334.41853
333.83412
333.25354
332.67711
332.10508
331.53771
330.97522
330.41778
329.86557
329.31873
328.77734
328.24149
327.71123
327.18658
326.66754
326.15408
325.64615
325.14368
324.64659
324.15475
323.66806
323.18636
322.70952
322.23736
321.76971
321.30639
320.84722
320.39199
319.9405
319.49255
319.04793
318.60642
318.16782
317.73191
317.29847
316.86729
316.43814
316.01083
315.58512
315.16081
314.73769
314.31554
313.89415
313.47333
313.05286
312.63253
312.21216
311.79154
311.37048
310.94878
310.52626
310.10272
309.67798
309.25187
308.82422
308.39484
307.96358
307.53027
307.09477
306.65692
306.2166
305.77366
305.328
304.87949
304.42805
303.97358
303.51602
303.05531
302.59139
302.12425
301.65387
301.18025
333.84241
333.25117
332.66412
332.08158
331.50385
330.93119
330.36384
329.802
329.24584
328.6955
328.1511
327.6127
327.08036
326.5541
326.0339
325.51973
325.01153
324.50922
324.01269
323.52183
323.03649
322.55653
322.08176
321.61202
321.14711
320.68684
320.231
319.77938
319.33176
318.88792
318.44764
318.01068
317.57684
317.14587
316.71755
316.29164
315.86793
315.44619
315.02619
314.60771
314.19052
313.77441
313.35916
312.94455
312.53038
312.11642
311.70248
311.28834
310.87381
310.45868
310.04276
309.62587
309.2078
308.78838
308.36742
307.94476
307.52022
307.09364
306.66487
306.23375
305.80015
305.36394
304.92499
304.4832
304.03846
303.59069
303.13982
302.68578
302.22854
301.76807
301.30436
300.8374
333.26087
332.66244
332.06858
331.47963
330.89593
330.31774
329.74533
329.17891
328.61866
328.06473
327.51724
326.97625
326.44182
325.91396
325.39265
324.87784
324.36946
323.86742
323.37161
322.88187
322.39806
321.92
321.44751
320.9804
320.51845
320.06144
319.60917
319.16139
318.71787
318.27839
317.84269
317.41054
316.98169
316.55591
316.13295
315.71258
315.29455
314.87862
314.46457
314.05215
313.64114
313.2313
312.82241
312.41425
312.0066
311.59923
311.19193
310.78449
310.3767
309.96836
309.55926
309.1492
308.738
308.32546
307.91139
307.49562
307.07798
306.65829
306.23641
305.81217
305.38544
304.95607
304.52396
304.08898
303.65103
303.21004
302.76592
302.31861
301.86808
301.41429
300.95724
300.49693
332.67351
332.06751
331.46648
330.87081
330.28083
329.69686
329.11917
328.54799
327.98351
327.42588
326.87522
326.33161
325.79508
325.26565
324.74328
324.22791
323.71947
323.21784
322.72288
322.23444
321.75234
321.2764
320.8064
320.34214
319.88338
319.42989
318.98142
318.53774
318.09859
317.66371
317.23286
316.80577
316.38218
315.96185
315.54452
315.12993
314.71783
314.30798
313.90013
313.49403
313.08944
312.68612
312.28384
311.88236
311.48146
311.08091
310.68049
310.27998
309.87915
309.47781
309.07573
308.67272
308.26858
307.86312
307.45613
307.04744
306.63687
306.22425
305.80941
305.3922
304.97247
304.55009
304.12493
303.69687
303.26581
302.83167
302.39436
301.95383
301.51004
301.06296
300.61257
300.15888
332.07992
331.46592
330.85734
330.25459
329.65804
329.06802
328.48481
327.90868
327.33981
326.77838
326.22448
325.67821
325.13959
324.60862
324.08526
323.56944
323.06106
322.55998
322.06605
321.5791
321.09893
320.62532
320.15805
319.69689
319.24157
318.79185
318.34747
317.90816
317.47364
317.04366
316.61792
316.19617
315.77813
315.36352
314.95209
314.54356
314.13767
313.73415
313.33276
312.93324
312.53532
312.13878
311.74336
311.34881
310.95492
310.56142
310.16811
309.77475
309.38112
308.987
308.59217
308.19642
307.79956
307.40137
307.00165
306.60023
306.19692
305.79153
305.38391
304.97388
304.56131
304.14604
303.72795
303.30692
302.88285
302.45563
302.02521
301.59151
301.15448
300.71411
300.27038
299.8233
331.47965
330.85721
330.24066
329.63045
329.02698
328.43061
327.84165
327.26036
326.68696
326.1216
325.5644
325.01545
324.47475
323.9423
323.41804
322.90188
322.3937
321.89335
321.40065
320.9154
320.43738
319.96636
319.50208
319.04428
318.59269
318.14703
317.70702
317.27236
316.84278
316.41798
315.99766
315.58154
315.16933
314.76074
314.35549
313.95331
313.5539
313.15701
312.76236
312.36968
311.97872
311.58921
311.20091
310.81355
310.42691
310.04072
309.65477
309.2688
308.8826
308.49593
308.10857
307.72031
307.33093
306.94022
306.54799
306.15403
305.75816
305.36019
304.95995
304.55727
304.152
303.74398
303.33309
302.9192
302.50221
302.08201
301.65853
301.2317
300.80148
300.36784
299.93077
299.49027
330.87221
330.24083
329.61586
328.99779
328.38705
327.78402
327.18904
326.60239
326.02428
325.45489
324.89433
324.34267
323.79992
323.26606
322.741
322.22464
321.71684
321.21741
320.72616
320.24286
319.76725
319.29909
318.83808
318.38394
317.93638
317.49508
317.05975
316.63007
316.20574
315.78643
315.37184
314.96167
314.5556
314.15334
313.75458
313.35904
312.96642
312.57644
312.18881
311.80327
311.41953
311.03734
310.65642
310.27652
309.89739
309.51877
309.14042
308.7621
308.38356
308.00458
307.62493
307.24438
306.86271
306.47971
306.09516
305.70887
305.32064
304.93027
304.53759
304.14242
303.7446
303.34399
302.94042
302.53379
302.12398
301.71088
301.29441
300.87451
300.45113
300.02423
299.59381
299.15987
330.25709
329.61623
328.98235
328.35597
327.73756
327.12755
326.52627
325.93403
325.35107
324.77754
324.21356
323.6592
323.11444
322.57925
322.05352
321.53713
321.0299
320.53162
320.04207
319.56098
319.08807
318.62306
318.16564
317.71549
317.27228
316.83568
316.40537
315.981
315.56225
315.14878
314.74026
314.33636
313.93676
313.54115
313.1492
312.76062
312.37509
311.99232
311.61202
311.2339
310.85768
310.48308
310.10983
309.73767
309.36632
308.99553
308.62505
308.25462
307.88401
307.51297
307.14126
306.76866
306.39493
306.01985
305.64321
305.26479
304.8844
304.50183
304.11689
303.72941
303.33921
302.94614
302.55004
302.15079
301.74826
301.34235
300.93296
300.52004
300.10353
299.6834
299.25962
298.83222
329.6337
328.98279
328.33946
327.7043
327.07781
326.46045
325.85258
325.25454
324.66654
324.08877
323.52134
322.96428
322.41758
321.88117
321.35493
320.8387
320.33226
319.83539
319.34781
318.86924
318.39936
317.93784
317.48435
317.03853
316.60003
316.1685
315.74356
315.32487
314.91206
314.50478
314.10268
313.7054
313.31262
312.92399
312.53919
312.15789
311.77978
311.40455
311.03189
310.6615
310.2931
309.92639
309.5611
309.19694
308.83366
308.47098
308.10863
307.74637
307.38394
307.02109
306.65758
306.29316
305.92761
305.56069
305.19218
304.82186
304.44951
304.07494
303.69793
303.31832
302.9359
302.55053
302.16204
301.77029
301.37516
300.97653
300.57431
300.16843
299.75883
299.34546
298.92834
298.50744
329.00144
328.33983
327.68648
327.04201
326.40699
325.7819
325.16714
324.56305
323.96987
323.38776
322.81684
322.25712
321.70857
321.17108
320.64452
320.12867
319.62329
319.12812
318.64283
318.16712
317.70061
317.24295
316.79376
316.35267
315.91927
315.49318
315.07402
314.66139
314.25491
313.8542
313.45889
313.06861
312.68301
312.30172
311.92442
311.55075
311.18039
310.81302
310.44832
310.08598
309.72571
309.3672
309.01016
308.65432
308.29938
307.94508
307.59116
307.23733
306.88335
306.52896
306.1739
305.81792
305.4608
305.10227
304.74213
304.38012
304.01604
303.64967
303.2808
302.90924
302.53479
302.15728
301.77655
301.39244
301.00483
300.61358
300.2186
299.81981
299.41715
299.01059
298.6001
298.18569
328.35963
327.68662
327.02261
326.36828
325.72424
325.09102
324.46904
323.85866
323.26013
322.67361
322.09918
321.53686
320.98657
320.44819
319.92151
319.40631
318.9023
318.40916
317.92653
317.45405
316.99131
316.53792
316.09346
315.6575
315.22962
314.80941
314.39643
313.99027
313.59053
313.1968
312.80868
312.42579
312.04775
311.67418
311.30473
310.93906
310.5768
310.21764
309.86123
309.50727
309.15545
308.80545
308.45698
308.10974
307.76346
307.41784
307.07261
306.7275
306.38225
306.03658
305.69024
305.34297
304.99452
304.64465
304.2931
303.93965
303.58407
303.22612
302.8656
302.50229
302.13599
301.76652
301.39371
301.01738
300.6374
300.25364
299.86599
299.47436
299.07869
298.67894
298.27508
297.86713
327.70754
327.02236
326.34699
325.68218
325.0286
324.38681
323.75729
323.14037
322.53633
321.94533
321.36741
320.80257
320.25071
319.71164
319.18513
318.67089
318.16859
317.67786
317.1983
316.72947
316.27095
315.82227
315.38298
314.95262
314.53073
314.11683
313.71049
313.31126
312.91869
312.53236
312.15185
311.77676
311.40667
311.04122
310.68002
310.3227
309.96891
309.61831
309.27055
308.9253
308.58226
308.24109
307.90151
307.56319
307.22586
306.88922
306.55299
306.21689
305.88065
305.54398
305.20663
304.86834
304.52883
304.18786
303.84518
303.50053
303.15368
302.80439
302.45243
302.09758
301.73964
301.37839
301.01366
300.64527
300.27306
299.8969
299.51667
299.13227
298.74364
298.35071
297.95348
297.55195
327.04435
326.34615
325.65865
324.9827
324.31902
323.66821
323.03077
322.40708
321.7974
321.20186
320.6205
320.05327
319.50002
318.96053
318.4345
317.92159
317.42141
316.93353
316.45749
315.9928
315.53897
315.09551
314.6619
314.23763
313.82221
313.41513
313.01591
312.62407
312.23914
311.86067
311.48821
311.12134
310.75964
310.4027
310.05014
309.70157
309.35663
309.01495
308.67619
308.34002
308.00609
307.6741
307.34372
307.01465
306.68659
306.35924
306.0323
305.70551
305.37856
305.05119
304.72312
304.39408
304.06379
303.732
303.39843
303.06284
302.72498
302.38458
302.04142
301.69526
301.34587
300.99304
300.63658
300.27628
299.91199
299.54356
299.17085
298.79376
298.4122
298.02613
297.63553
297.24039
326.36917
325.65701
324.95655
324.26873
323.59432
322.93401
322.2883
321.65759
321.04213
320.44204
319.85732
319.28787
318.73349
318.1939
317.66873
317.15758
316.65999
316.17545
315.70344
315.24343
314.79484
314.35714
313.92974
313.51212
313.1037
312.70396
312.31238
311.92844
311.55164
311.1815
310.81756
310.45937
310.10649
309.7585
309.41499
309.07558
308.73987
308.4075
308.07811
307.75136
307.42691
307.10443
306.78359
306.46409
306.14562
305.82787
305.51055
305.19336
304.87602
304.55824
304.23974
303.92023
303.59945
303.27711
302.95294
302.62668
302.29806
301.96681
301.6327
301.29545
300.95485
300.61065
300.26265
299.91063
299.55442
299.19384
298.82876
298.45906
298.08464
297.70545
297.32147
296.93268
325.68102
324.95385
324.23951
323.53901
322.85323
322.18288
321.52853
320.89057
320.26923
319.6646
319.07666
318.50522
317.95003
317.41073
316.88688
316.37799
315.88351
315.40288
314.9355
314.48074
314.03801
313.60666
313.18609
312.77568
312.37486
311.98303
311.59963
311.22412
310.85598
310.49468
310.13975
309.79071
309.44711
309.1085
308.77448
308.44463
308.11855
307.79588
307.47625
307.15929
306.84467
306.53205
306.2211
305.91151
305.60295
305.29513
304.98774
304.68047
304.37304
304.06516
303.75653
303.44686
303.13587
302.82327
302.50879
302.19214
301.87304
301.55121
301.2264
300.89833
300.56675
300.23141
299.89208
299.54853
299.20056
298.84799
298.49066
298.12844
297.76123
297.38895
297.01158
296.62911
324.9788
324.23546
323.5062
322.79215
322.09428
321.41336
320.74998
320.10454
319.47725
318.86817
318.27719
317.70407
317.14847
316.60993
316.08792
315.58187
315.09114
314.61506
314.15296
313.70414
313.26791
312.84358
312.43048
312.02794
311.63533
311.25201
310.87739
310.51089
310.15194
309.80002
309.45461
309.11522
308.78137
308.45261
308.12851
307.80865
307.49263
307.18006
306.87056
306.56377
306.25935
305.95695
305.65624
305.35689
305.05859
304.76102
304.46388
304.16686
303.86966
303.57199
303.27353
302.97401
302.67312
302.37057
302.06607
301.75932
301.45003
301.13792
300.82269
300.50406
300.18176
299.85553
299.52509
299.19022
298.85069
298.50629
298.15685
297.80222
297.44228
297.07695
296.70619
296.33
324.26129
323.50047
322.75514
322.02658
321.31585
320.62378
319.95099
319.29788
318.66463
318.05122
317.45748
316.88307
316.32754
315.79034
315.27081
314.76828
314.282
313.81121
313.35513
312.91298
312.484
312.06741
311.66249
311.26852
310.88478
310.51063
310.14542
309.78852
309.43936
309.09737
308.76201
308.43277
308.10917
307.79074
307.47702
307.16759
306.86204
306.55998
306.26102
305.96479
305.67094
305.37912
305.089
304.80025
304.51255
304.22557
303.93901
303.65256
303.36591
303.07877
302.79081
302.50175
302.21128
301.91909
301.62488
301.32835
301.02918
300.72707
300.42172
300.11282
299.80008
299.48321
299.16193
298.83597
298.50509
298.16904
297.82765
297.48072
297.12814
296.76979
296.40564
296.03568
323.52711
322.74733
321.98467
321.24053
320.5161
319.81229
319.12972
318.46879
317.82961
317.2121
316.61597
316.04077
315.48592
314.95073
314.43444
313.93622
313.4552
312.99053
312.5413
312.10666
311.68573
311.27769
310.88172
310.49705
310.12292
309.75863
309.40348
309.05682
308.71805
308.38657
308.06183
307.74328
307.43044
307.12282
306.81995
306.5214
306.22676
305.93562
305.6476
305.36232
305.07942
304.79856
304.51939
304.24159
303.96483
303.68878
303.41314
303.1376
302.86183
302.58554
302.30842
302.03015
301.75041
301.46891
301.18532
300.89932
300.61059
300.31881
300.02366
299.7248
299.42193
299.11472
298.80286
298.48607