/*--------------------------------*- C++ -*----------------------------------*\
| =========                 |                                                 |
| \\      /  F ield         | OpenFOAM: The Open Source CFD Toolbox           |
|  \\    /   O peration     | Version:  3.0.x                                 |
|   \\  /    A nd           | Web:      www.OpenFOAM.org                      |
|    \\/     M anipulation  |                                                 |
|*---------------------------------------------------------------------------*|
|* OpenFOAM for Windows 16.10 (v1)                                           *|
|* Built by CFD Support, www.cfdsupport.com (based on Symscape).             *|
\*---------------------------------------------------------------------------*/
FoamFile
{
    version     2.0;
    format      ascii;
    class       volScalarField;
    location    "5";
    object      gradTx;
}
// * * * * * * * * * * * * * * * * * * * * * * * * * * * * * * * * * * * * * //

dimensions      [0 -1 0 1 0 0 0];

internalField   nonuniform List<scalar> 
6000
(
0.155415
0.465887
0.774896
1.08145
1.3848
1.684
1.9783
2.267
2.54951
2.82536
3.0942
3.35585
3.61029
3.8577
4.09844
4.33306
4.56235
4.78733
5.00923
5.22947
0.168764
0.505921
0.84152
1.17443
1.50379
1.82864
2.14811
2.46145
2.76801
3.06726
3.35881
3.64247
3.91819
4.18617
4.44677
4.70062
4.94858
5.19172
5.43139
5.66917
0.182483
0.546996
0.90981
1.2697
1.62568
1.97672
2.32186
2.66026
2.9912
3.31409
3.6285
3.93419
4.23109
4.51939
4.79947
5.072
5.3379
5.59835
5.85474
6.10879
0.196574
0.589181
0.979923
1.36748
1.75074
2.12857
2.49992
2.86384
3.21954
3.56634
3.90376
4.2315
4.54947
4.85783
5.15698
5.4476
5.73068
6.00752
6.27963
6.54876
0.21107
0.632579
1.05204
1.46803
1.87929
2.28457
2.68272
3.07269
3.45358
3.82461
4.18523
4.53507
4.87401
5.20217
5.51996
5.82807
6.12753
6.41971
6.7063
6.98919
0.226012
0.67731
1.12635
1.57161
2.01166
2.44514
2.87076
3.28737
3.69392
4.08956
4.47361
4.84563
5.20545
5.55314
5.8891
6.21404
6.52905
6.83553
7.13532
7.43048
0.24144
0.723497
1.20307
1.67851
2.14823
2.61073
3.06458
3.50848
3.94125
4.36191
4.76968
5.16401
5.54465
5.91161
6.26529
6.60638
6.93601
7.25568
7.5673
7.87314
0.257395
0.771277
1.28243
1.78906
2.28943
2.78186
3.26478
3.7367
4.19633
4.64251
5.07434
5.49116
5.89259
6.2786
6.64952
7.00605
7.34933
7.68097
8.00298
8.31781
0.273933
0.820801
1.36469
1.90363
2.43571
2.95909
3.472
3.9728
4.46
4.9323
5.38862
5.82816
6.25041
6.65524
7.04293
7.41417
7.7701
8.1124
8.44324
8.7652
0.291109
0.872233
1.4501
2.02258
2.58756
3.14301
3.68697
4.21761
4.73323
5.23233
5.71365
6.17622
6.61938
7.04287
7.44687
7.83207
8.19959
8.55117
8.88912
9.21623
0.308977
0.925745
1.53897
2.14633
2.74552
3.33429
3.91048
4.47203
5.01702
5.54374
6.0507
6.53672
7.00095
7.44299
7.86289
8.26126
8.63926
8.99866
9.34191
9.672
0.327599
0.981519
1.6316
2.27532
2.91015
3.53363
4.14336
4.73704
5.31252
5.86781
6.40117
6.91117
7.39675
7.85729
8.29271
8.70351
9.09084
9.45651
9.80309
10.1338
0.347041
1.03975
1.72831
2.40999
3.08204
3.74176
4.38651
5.01371
5.62093
6.2059
6.76659
7.30125
7.80856
8.28768
8.7383
9.16081
9.55628
9.92659
10.2744
10.6033
0.367369
1.10062
1.82942
2.55081
3.26181
3.95947
4.64088
5.30317
5.94359
6.55954
7.14864
7.70883
8.23843
8.7363
9.2019
9.63541
10.0378
10.4111
10.7579
11.0822
0.388645
1.16435
1.93529
2.69828
3.45012
4.18759
4.90749
5.60663
6.28191
6.93036
7.54921
8.13597
8.6886
9.20557
9.68603
10.1299
10.5381
10.9125
11.2559
11.5726
0.410936
1.23112
2.04624
2.85289
3.64762
4.42696
5.18738
5.92536
6.63741
7.32013
7.9703
8.58496
9.16159
9.69821
10.1936
10.6473
11.06
11.4336
11.7711
12.0769
0.434308
1.30114
2.16261
3.01512
3.85498
4.67843
5.48163
6.26068
7.01168
7.73075
8.41412
9.05831
9.66019
10.2172
10.7277
11.1908
11.607
11.9778
12.3066
12.598
0.458818
1.37458
2.28472
3.18545
4.07284
4.94286
5.79132
6.61397
7.4064
8.16421
8.88304
9.55873
10.1875
10.7661
11.2922
11.7645
12.1829
12.549
12.8661
13.1391
0.484521
1.45162
2.41288
3.36432
4.30182
5.22106
6.11754
6.98658
7.82327
8.62261
9.37956
10.0892
10.7469
11.3486
11.8912
12.3725
12.7922
13.1515
13.4537
13.7041
0.511463
1.5324
2.54733
3.55212
4.54247
5.51381
6.46133
7.37988
8.26405
9.10815
9.90636
10.6529
11.3421
11.969
12.5293
13.0201
13.4403
13.7906
14.0744
14.2975
5.53841
5.9437
6.37054
6.83278
7.34556
7.92464
8.58595
9.34529
10.218
11.219
12.3615
13.6588
15.1212
16.7581
18.577
20.5811
22.7732
25.1494
27.7036
30.4236
6.00244
6.43931
6.89929
7.3975
7.95038
8.57513
9.2891
10.1094
11.0529
12.1357
13.3721
14.7768
16.3609
18.1348
20.1068
22.2804
24.6586
27.2378
30.0113
32.9663
6.46452
6.93037
7.42048
7.9514
8.54102
9.208
9.97121
10.8493
11.8603
13.0218
14.3496
15.8592
17.5632
19.4726
21.5965
23.9393
26.5042
29.2879
32.2833
35.4774
6.92479
7.41665
7.9336
8.4937
9.11637
9.82187
10.6306
11.5628
12.6379
13.8751
15.2913
16.9032
18.7249
20.768
23.0429
25.5546
28.3066
31.2961
34.5161
37.9534
7.38336
7.898
8.4382
9.02362
9.67537
10.4153
11.2657
12.2481
13.3837
14.693
16.1944
17.9058
19.8427
22.0178
24.4425
27.1225
30.062
33.2588
36.706
40.3907
7.8404
8.37433
8.93387
9.54044
10.2169
10.987
11.8746
12.9031
14.0951
15.4728
17.056
18.8639
20.9134
23.2184
25.7914
28.6392
31.7665
35.172
38.849
42.7853
8.29619
8.84561
9.42026
10.0434
10.74
11.5355
12.4557
13.5258
14.77
16.212
17.8732
19.7743
21.9336
24.3662
27.0859
30.1007
33.416
37.0315
40.9409
45.1329
8.75112
9.31189
9.89705
10.532
11.2436
12.0594
13.0072
14.1141
15.4058
16.9078
18.6431
20.6337
22.8996
25.4574
28.3221
31.503
35.0064
38.8328
42.9771
47.4285
9.2057
9.77333
10.364
11.0053
11.7265
12.5573
13.5274
14.6658
16.0002
17.5575
19.3625
21.4388
23.8079
26.4881
29.4957
32.8415
36.5329
40.5713
44.9526
49.6671
9.66058
10.2302
10.821
11.4629
12.1877
13.0276
14.0142
15.1788
16.5505
18.1582
20.0283
22.1861
24.6547
27.4542
30.6025
34.1119
37.9908
42.2421
46.8624
51.8432
10.1166
10.6829
11.2679
11.9042
12.6263
13.4688
14.466
15.6508
17.0543
18.7071
20.6374
22.8719
25.4361
28.3516
31.6379
35.3092
39.3753
43.84
48.701
53.951
10.5747
11.1319
11.7046
12.3285
13.041
13.8796
14.8807
16.0795
17.509
19.2012
21.1863
23.4928
26.148
29.1757
32.5972
36.4285
40.681
45.3595
50.4628
55.9845
11.0361
11.5779
12.1312
12.7353
13.4308
14.2582
15.2564
16.4626
17.9117
19.6374
21.6716
24.0448
26.7863
29.922
33.4755
37.4647
41.9026
46.7952
52.142
57.9375
11.5023
12.0215
12.5478
13.124
13.7946
14.6031
15.5911
16.7978
18.2598
20.0127
22.09
24.5241
27.3467
30.5859
34.2677
38.4123
43.0343
48.141
53.7325
59.8038
11.9747
12.4638
12.9545
13.4941
14.1311
14.9126
15.8826
17.0825
18.5506
20.3238
22.4378
24.9268
27.8247
31.1623
34.9684
39.2656
44.0703
49.3911
55.2283
61.5768
12.4553
12.9059
13.3516
13.845
14.4391
15.1848
16.1286
17.3141
18.781
20.5677
22.7115
25.2487
28.2157
31.6463
35.5721
40.0186
45.0044
50.5392
56.6232
63.2504
12.9464
13.3488
13.7392
14.1759
14.7172
15.4178
16.327
17.4901
18.9483
20.7411
22.9075
25.4858
28.5152
32.0326
36.0729
40.6651
45.8301
51.5787
57.9107
64.8183
13.4504
13.7941
14.1176
14.4862
14.9639
15.6096
16.4753
17.6079
19.0495
20.8407
23.022
25.6339
28.7182
32.3155
36.4647
41.1984
46.5405
52.503
59.0847
66.2746
13.9703
14.2435
14.4872
14.775
15.1774
15.7579
16.571
17.6645
19.0816
20.8633
23.0515
25.6887
28.8198
32.4895
36.741
41.6116
47.1284
53.305
60.1385
67.6135
14.5096
14.6987
14.8481
15.041
15.3557
15.8602
16.6112
17.6573
19.0416
20.8057
22.9922
25.646
28.8151
32.5486
36.8951
41.897
47.586
53.9771
61.0656
68.8297
32.7931
34.7594
36.7703
38.8131
40.8715
42.9255
44.9505
46.9166
48.7883
50.5237
52.0745
53.3869
54.4023
55.0606
55.3039
55.0823
54.3598
53.1219
51.3815
49.1821
35.542
37.6806
39.8691
42.0939
44.3376
46.5788
48.791
50.9424
52.9946
54.902
56.6121
58.0656
59.198
59.942
60.2323
60.0116
59.2378
57.8922
55.9871
53.5698
38.2638
40.5796
42.9519
45.3663
47.8048
50.2448
52.6587
55.0124
57.2652
59.368
61.2638
62.8872
64.1663
65.025
65.3879
65.1868
64.3699
62.9112
60.8202
58.1481
40.9553
43.4535
46.0159
48.628
51.2713
53.9225
56.553
59.1274
61.6024
63.9261
66.0364
67.8617
69.3214
70.3284
70.7941
70.6357
69.7872
68.2113
65.9117
62.9431
43.6129
46.2987
49.0579
51.8759
54.7342
57.6094
60.4722
63.2864
66.007
68.5789
70.9357
72.9988
74.6777
75.8724
76.4775
76.3914
75.5279
73.8329
71.3006
67.9879
46.2327
49.1112
52.0737
55.106
58.1896
61.3017
64.4131
67.4871
70.4777
73.3274
75.9656
78.3066
80.2493
81.6784
82.4682
82.4925
81.6383
79.8266
77.0363
73.3245
48.81
51.8864
55.0586
58.3131
61.6324
64.9943
68.3705
71.7249
75.011
78.1699
81.1275
83.7914
86.0492
87.7684
88.7992
88.9841
88.1741
86.2553
83.1816
79.0064
51.3398
54.6189
58.007
61.4915
65.0563
68.6806
72.3378
75.993
79.6007
83.102
86.42
89.4567
92.0886
94.1643
95.5062
95.9178
95.2027
93.1974
89.8166
85.1024
53.8168
57.303
60.9125
64.6342
68.4536
72.3523
76.3059
80.2821
84.2379
88.1154
91.8375
95.3019
98.375
100.886
102.627
103.352
102.805
100.751
97.0442
91.7021
56.235
59.9323
63.7683
67.7334
71.8158
75.9996
80.2639
84.5803
88.9097
93.1979
97.3695
101.321
104.911
107.951
110.198
111.352
111.076
109.038
104.999
98.9241
58.5881
62.4999
66.5665
70.7806
75.1328
79.6111
84.1988
88.8728
93.6
98.3321
102.999
107.501
111.692
115.369
118.255
119.988
120.131
118.216
113.858
106.929
60.8697
64.9987
69.2993
73.7664
78.3939
83.1739
88.0953
93.1417
98.288
103.495
108.703
113.819
118.701
123.138
126.824
129.331
130.1
128.479
123.859
115.939
63.0729
67.4212
71.958
76.6809
81.5872
86.6738
91.9362
97.3661
102.949
108.658
114.448
120.24
125.907
131.241
135.918
139.447
141.131
140.074
135.328
126.272
65.1911
69.7598
74.5341
79.5139
84.7003
90.0957
95.7026
101.523
107.554
113.785
120.191
126.717
133.261
139.636
145.522
150.383
153.381
153.31
148.711
138.395
67.2173
72.0071
77.0188
82.255
87.7206
93.4235
99.3744
105.585
112.069
118.835
125.881
133.187
140.69
148.249
155.58
162.147
166.994
168.557
164.637
153.017
69.1449
74.1557
79.4038
84.8941
90.6353
96.6412
102.93
109.527
116.46
123.759
131.456
139.569
148.094
156.963
165.979
174.675
182.067
186.242
183.983
171.253
70.9677
76.1988
81.6812
87.4217
93.4325
99.7329
106.35
113.319
120.687
128.507
136.845
145.769
155.346
165.613
176.519
187.784
198.568
206.787
207.984
194.918
72.6796
78.1301
83.8439
89.8291
96.1009
102.684
109.613
116.935
124.713
133.026
141.973
151.678
162.29
173.977
186.9
201.107
216.211
230.451
238.324
227.063
74.2755
79.9443
85.886
92.1091
98.6312
105.481
112.701
120.348
128.501
137.262
146.764
157.185
168.757
181.793
196.711
214.03
234.237
256.946
277.168
272.988
75.7509
81.6373
87.8031
94.2562
101.016
108.114
115.598
123.536
132.019
141.169
151.148
162.179
174.572
188.773
205.454
225.67
251.15
284.547
326.858
342.154
45.5866
40.6136
35.5382
30.8915
27.0862
24.4045
23.037
23.1403
24.8976
28.5761
34.5888
43.5751
56.524
74.991
101.514
140.494
200.318
299.459
489.368
979.469
49.6059
44.1195
38.526
33.4162
29.24
26.2983
24.7892
24.8735
26.7411
30.6733
37.1063
46.7163
60.5456
80.2219
108.37
149.454
211.656
311.523
485.453
796.281
53.7438
47.6424
41.4366
35.7914
31.1962
27.9629
26.2864
26.3212
28.2544
32.3703
39.1155
49.1825
63.6317
84.0973
113.157
155.035
216.969
311.737
459.634
662.826
58.0153
51.182
44.2575
37.9986
32.9345
29.3785
27.5098
27.4652
29.4185
33.6465
40.5932
50.9476
65.7551
86.5975
115.894
157.406
217.028
303.45
424.968
561.881
62.4387
54.7362
46.9719
40.0147
34.4315
30.524
28.4413
28.2896
30.2186
34.4878
41.5258
52.0001
66.913
87.7452
116.675
156.881
212.8
289.547
387.839
482.843
67.036
58.3003
49.5571
41.811
35.6604
31.3777
29.0639
28.781
30.6443
34.886
41.9085
52.3425
67.1237
87.5973
115.653
153.841
205.239
272.197
351.235
419.005
71.834
61.8657
51.9827
43.352
36.5904
31.9163
29.3615
28.9291
30.6894
34.8393
41.7454
51.9893
66.4235
86.2362
113.009
148.687
195.189
252.914
316.435
366.011
76.8651
65.4173
54.2081
44.5939
37.1864
32.1158
29.3196
28.7262
30.3522
34.3517
41.0481
50.9657
64.8628
83.7615
108.941
141.801
183.343
232.705
283.866
320.949
82.1686
68.9308
56.1781
45.4827
37.4084
31.9515
28.9252
28.1683
29.6353
33.4325
39.8355
49.3054
62.5019
80.2818
103.644
133.526
170.246
212.207
253.549
281.82
87.7921
72.3666
57.8191
45.9522
37.2117
31.3983
28.1677
27.2545
28.5456
32.0964
38.1323
47.0489
59.4076
75.9089
97.3038
124.158
156.309
191.808
225.323
247.214
93.7941
75.662
59.0311
45.9215
36.5467
30.4318
27.0394
25.988
27.0943
30.3626
35.9681
44.2417
55.6505
70.753
90.0901
113.942
141.838
171.727
198.957
216.112
100.246
78.7171
59.6797
45.2932
35.36
29.0297
25.5365
24.3764
25.2971
28.2549
33.377
40.9328
51.3025
64.9196
82.1541
103.078
127.047
152.072
174.203
187.753
107.237
81.3737
59.5841
43.9524
33.5969
27.1737
23.6604
22.4317
23.174
25.8009
30.3964
37.1737
46.4348
58.5074
73.6277
91.7276
112.088
132.88
150.822
161.563
114.877
83.3785
58.5033
41.7674
31.2046
24.852
21.4187
20.1718
20.7493
23.032
27.0668
33.0172
41.1172
51.6076
64.6246
80.0154
97.0591
114.143
128.593
137.092
123.307
84.3234
56.1202
38.5947
28.1387
22.0633
18.8272
17.6199
18.0517
19.9827
23.4308
28.5167
35.4172
44.3034
55.2418
68.0386
82.0241
95.8281
107.316
113.98
132.708
83.5435
52.0287
34.2909
24.3719
18.8204
15.9111
14.8057
15.1143
16.6907
19.5326
23.7258
29.3995
36.6709
45.5615
55.8717
67.018
77.8836
86.811
91.9352
143.323
79.9396
45.7329
28.7362
19.9063
15.1546
12.7065
11.7653
11.9741
13.1963
15.4182
18.6981
23.1262
28.7794
35.6541
43.5709
52.0569
60.2492
66.9144
70.7098
155.506
71.6675
36.6835
21.8747
14.7883
11.1203
9.26067
8.54088
8.67171
9.5418
11.1346
13.4866
16.6568
20.6924
25.58
31.1791
37.1428
42.8592
47.477
50.0916
169.832
55.5787
24.406
13.7776
9.1233
6.79665
5.63251
5.18037
5.25106
5.77172
6.72951
8.14423
10.049
12.469
15.3921
18.729
22.2683
25.6449
28.3601
29.8918
187.38
26.197
8.8414
4.72469
3.08589
2.28701
1.89043
1.7362
1.75841
1.93171
2.2513
2.72345
3.3588
4.16522
5.13794
6.24645
7.41974
8.53654
9.43248
9.93701
0.539681
1.61703
2.68827
3.74917
4.79528
5.82182
6.82364
7.79519
8.73045
9.62304
10.4662
11.2532
11.9772
12.6319
13.2119
13.713
14.133
14.4724
14.7341
14.9243
0.569194
1.70556
2.83582
3.95569
5.06062
6.14564
7.20534
8.23371
9.22416
10.1695
11.0621
11.8939
12.6567
13.3427
13.9449
14.4577
14.8775
15.2038
15.4394
15.591
0.599999
1.79801
2.99002
4.17178
5.33869
6.48569
7.60709
8.69649
9.74672
10.7498
11.6969
12.5787
13.3853
14.1072
14.7352
15.2618
15.6818
15.9933
16.1985
16.3046
0.632069
1.89431
3.15078
4.39737
5.62952
6.84212
8.02932
9.18436
10.2995
11.3658
12.3735
13.3115
14.1682
14.9317
15.5904
16.1342
16.5556
16.8507
17.0211
17.0741
0.665349
1.9943
3.31788
4.63219
5.93286
7.21482
8.47214
9.69777
10.8834
12.0195
13.0946
14.0963
15.0107
15.8232
16.5191
17.085
17.5101
17.788
17.9188
17.9099
0.699754
2.09772
3.4909
4.87574
6.24817
7.6033
8.93523
10.2368
11.4992
12.712
13.8628
14.9371
15.9185
16.7893
17.531
18.1258
18.5587
18.8196
18.9059
18.8249
0.735159
2.2042
3.66924
5.12723
6.57454
8.00662
9.41777
10.8008
12.1467
13.4443
14.68
15.8372
16.8971
17.838
18.6368
19.2703
19.7175
19.9628
19.9999
19.8353
0.771391
2.31322
3.85207
5.38556
6.91065
8.42332
9.91829
11.3886
12.8252
14.2163
15.5473
16.7998
17.9518
18.9777
19.8485
20.5341
21.0054
21.2392
21.2231
20.9612
0.808227
2.42414
4.03833
5.64927
7.25469
8.85134
10.4346
11.998
13.5327
15.0268
16.4647
17.8266
19.0874
20.2166
21.1788
21.9349
22.4454
22.6756
22.6036
22.2288
0.845396
2.53615
4.2267
5.91652
7.60434
9.28792
10.9636
12.6257
14.2661
15.8732
17.4309
18.9182
20.3071
21.5624
22.641
23.493
24.0648
24.3054
24.1778
23.6721
0.88258
2.64829
4.41557
6.18504
7.9567
9.72957
11.5013
13.2674
15.0209
16.7511
18.4423
20.0727
21.6123
23.0212
24.2482
25.2305
25.8961
26.171
25.9939
25.3377
0.919409
2.75944
4.60303
6.45217
8.3083
10.172
12.0425
13.9171
15.7906
17.6539
19.4926
21.2853
23.0011
24.5964
26.012
27.1707
27.9774
28.3258
28.1166
27.2899
0.955465
2.86834
4.78694
6.71481
8.65506
10.6101
12.5811
14.5676
16.5669
18.5724
20.5722
22.5472
24.467
26.2867
27.9403
29.3362
30.352
30.8377
30.6344
29.6219
0.990285
2.97356
4.9649
6.96954
8.9924
11.0379
13.1097
15.21
17.3392
19.4944
21.6678
23.8442
25.9972
28.0831
30.0336
31.7449
33.0658
33.7905
33.6701
32.473
1.02337
3.0736
5.13435
7.2126
9.31524
11.449
13.62
15.834
18.095
20.4048
22.7615
25.1564
27.5701
29.9661
32.28
34.4034
36.1611
37.2841
37.3949
36.0611
1.0542
3.16691
5.2926
7.44006
9.61821
11.8361
14.1029
16.4278
18.8194
21.2853
23.8308
26.4564
29.1545
31.9018
34.6483
37.2959
39.6628
41.4255
42.0442
40.7404
1.08227
3.2519
5.43693
7.6479
9.89573
12.1919
14.5487
16.9789
19.4962
22.1149
24.8487
27.7102
30.7072
33.838
37.0799
40.3681
43.5511
46.2991
47.9239
47.1116
1.10707
3.32705
5.56468
7.83215
10.1423
12.509
14.9474
17.4742
20.1083
22.8707
25.785
28.8771
32.1744
35.703
39.4819
43.5076
47.7178
51.8916
55.3633
56.2246
1.12814
3.39092
5.67335
7.98906
10.3527
12.7802
15.2895
17.9009
20.6382
23.5293
26.6075
29.9127
33.4934
37.4079
41.7259
46.5291
51.9078
57.9335
64.4734
69.9492
1.14507
3.44224
5.76068
8.1153
10.5221
12.999
15.5661
18.247
21.0697
24.0682
27.2846
30.7721
34.5989
38.8546
43.6593
49.1821
55.6837
63.6463
74.2644
91.5785
15.0722
15.1617
15.2003
15.2831
15.4966
15.9138
16.5932
17.5833
18.9266
20.6646
22.8406
25.5014
28.6987
32.4866
36.9196
42.0468
47.9049
54.5115
61.8592
69.9181
15.6627
15.6347
15.5439
15.4993
15.5972
15.9156
16.5138
17.4394
18.7337
20.4371
22.5932
25.251
28.4658
32.2972
36.8071
42.0521
48.076
54.8995
62.5124
70.8742
16.2864
16.1202
15.8784
15.6873
15.6544
15.862
16.3697
17.2228
18.46
20.1201
22.2467
24.8905
28.1109
31.9738
36.5493
41.9036
48.0892
55.1315
63.0176
71.6937
16.9498
16.6207
16.2028
15.844
15.6641
15.7492
16.1574
16.9302
18.1027
19.7109
21.798
24.4162
27.6291
31.5097
36.1376
41.5909
47.9331
55.1969
63.3667
72.3728
17.6602
17.1386
16.5156
15.9653
15.6214
15.5726
15.8731
16.5588
17.6593
19.2072
21.2444
23.8245
27.0154
30.898
35.563
41.1025
47.595
55.0833
63.5507
72.9081
18.4264
17.6765
16.814
16.0459
15.5205
15.3269
15.5127
16.1054
17.1275
18.6069
20.5835
23.1121
26.2651
30.1317
34.8156
40.4259
47.0601
54.7763
63.5589
73.296
19.259
18.2367
17.0939
16.0785
15.354
15.0062
15.072
15.5672
16.5053
17.9084
19.8136
22.2764
25.3738
29.204
33.8852
39.5471
46.3116
54.2586
63.3786
73.5333
20.1708
18.8207
17.3485
16.0536
15.1131
14.6039
14.5465
14.9416
15.7913
17.1107
18.9335
21.3154
24.3377
28.1082
32.7611
38.4505
45.3295
53.5093
62.9938
73.616
21.1776
19.4287
17.5682
15.9587
14.7871
14.1122
13.9315
14.2261
14.9846
16.2136
17.9429
20.2279
23.1538
26.838
31.4323
37.1189
44.0905
52.5022
62.3843
73.5399
22.2989
20.0588
17.7383
15.7774
14.3629
13.523
13.2227
13.419
14.0849
15.2177
16.8425
19.0139
21.8202
25.3881
29.8878
35.5334
42.5669
51.2047
61.5233
73.2992
23.5594
20.7047
17.8373
15.4881
13.8253
12.8272
12.4158
12.5191
13.0929
14.1246
15.6341
17.6744
20.3361
23.7541
28.1169
33.6738
40.7265
49.5752
60.3743
72.8857
24.9913
21.3532
17.834
15.0632
13.1563
12.0155
11.5072
11.5264
12.0105
12.9372
14.3208
16.2122
18.7026
21.9334
26.1101
31.5187
38.5313
47.5605
58.8872
72.2881
26.637
21.9781
17.6829
14.4676
12.336
11.079
10.4944
10.4417
10.8406
11.6595
12.9073
14.6316
16.9229
19.9259
23.8599
29.0469
35.9377
45.092
56.9902
71.4886
28.5544
22.5312
17.3185
13.6579
11.343
10.0095
9.37647
9.2679
9.58783
10.297
11.3996
12.9391
15.0026
17.7345
21.3623
26.2385
32.8969
42.0814
54.5797
70.4604
30.8267
22.9243
16.6476
12.5824
10.1561
8.80176
8.15499
8.00944
8.25814
8.85685
9.80563
11.1431
12.9503
15.3662
18.618
23.078
29.3572
38.4163
51.501
69.1604
33.5794
22.9961
15.5397
11.1832
8.75742
7.45421
6.8345
6.67309
6.85931
7.34754
8.13488
9.2542
10.7778
12.8328
15.6351
19.5582
25.2684
33.9561
47.5186
67.5182
37.0191
22.4504
13.8196
9.40264
7.13702
5.97164
5.42349
5.26807
5.40083
5.77914
6.39856
7.28549
8.50029
10.1517
12.4308
15.6855
20.5914
28.5329
42.2647
65.4154
41.5245
20.7316
11.267
7.19711
5.29928
4.36714
3.9349
3.80613
3.89385
4.16312
4.6094
5.25202
6.13654
7.34668
9.0337
11.4865
15.3148
21.9659
35.1504
62.6463
47.8815
16.7752
7.64891
4.5625
3.2708
2.6639
2.38638
2.30143
2.35102
2.51213
2.78146
3.17077
3.70847
4.44746
5.48536
7.01595
9.4806
14.1083
25.2091
58.8425
57.9383
8.47713
2.83771
1.57338
1.10705
0.895583
0.799811
0.770149
0.786149
0.839774
0.92981
1.06022
1.24064
1.4892
1.83969
2.36085
3.21912
4.97218
10.8168
53.3213
77.102
83.2062
89.5924
96.2672
103.25
110.575
118.294
126.483
135.241
144.707
155.064
166.569
179.584
194.651
212.625
234.971
264.544
308.187
388.553
616.544
78.3266
84.6497
91.2534
98.1414
105.332
112.86
120.782
129.175
138.149
147.849
158.47
170.286
183.684
199.238
217.853
241.06
271.686
315.504
384.637
493.861
79.4233
85.9685
92.788
99.8812
107.264
114.971
123.059
131.61
140.735
150.58
161.346
173.301
186.825
202.464
221.041
243.85
272.965
311.571
362.902
419.722
80.3922
87.1655
94.2011
101.492
109.052
116.912
125.132
133.79
142.999
152.903
163.692
175.619
189.026
204.383
222.349
243.838
270.027
301.982
338.729
370.837
81.235
88.246
95.5004
102.984
110.705
118.695
127.008
135.726
144.955
154.832
165.533
177.28
190.36
205.143
222.091
241.736
264.525
290.265
316.616
336.221
81.9555
89.2182
96.6979
104.371
112.239
120.333
128.705
137.435
146.623
156.396
166.908
178.348
190.938
204.941
220.634
238.238
257.711
278.275
297.502
310.319
82.5591
90.094
97.8095
105.67
113.674
121.847
130.243
138.939
148.031
157.631
167.872
178.903
190.888
203.988
218.329
233.908
250.412
266.88
281.236
290.114
83.0544
90.8895
98.8564
106.907
115.033
123.262
131.648
140.269
149.212
158.581
168.485
179.036
190.342
202.484
215.473
229.167
243.13
256.422
267.406
273.854
83.4531
91.6264
99.8661
108.11
116.346
124.606
132.95
141.454
150.205
159.294
168.809
178.832
189.425
200.603
212.303
224.306
236.146
246.991
255.592
260.46
83.7716
92.3338
100.874
109.316
117.649
125.914
134.18
142.529
151.048
159.817
168.908
178.376
188.246
198.491
208.998
219.518
229.605
238.557
245.436
249.23
84.0329
93.0508
101.926
110.57
118.981
127.221
135.373
143.53
151.779
160.197
168.839
177.742
186.902
196.262
205.687
214.923
223.567
231.045
236.652
239.685
84.2697
93.8311
103.082
111.926
120.391
128.566
136.563
144.489
152.436
160.476
168.655
176.993
185.468
194.005
202.46
210.592
218.048
224.365
229.011
231.489
84.5301
94.7494
104.418
113.452
121.929
129.991
137.785
145.439
153.052
160.693
168.401
176.183
184.005
191.785
199.377
206.56
213.035
218.427
222.333
224.395
84.8877
95.9126
106.036
115.226
123.652
131.535
139.07
146.408
153.655
160.88
168.114
175.356
182.562
189.648
196.474
202.844
208.503
213.15
216.476
218.216
85.4584
97.4764
108.069
117.338
125.617
133.234
140.442
147.416
154.268
161.063
167.825
174.543
181.173
187.626
193.775
199.445
204.42
208.459
211.323
212.811
86.4335
99.674
110.69
119.891
127.875
135.114
141.918
148.479
154.907
161.26
167.554
173.771
179.861
185.74
191.288
196.353
200.753
204.292
206.781
208.068
88.1408
102.86
114.117
122.984
130.465
137.188
143.503
149.6
155.58
161.483
167.317
173.055
178.644
184.001
189.017
193.558
197.469
200.591
202.773
203.896
91.165
107.586
118.606
126.694
133.393
139.442
145.184
150.775
156.285
161.738
167.123
172.406
177.529
182.413
186.957
191.042
194.536
197.308
199.235
200.225
96.59
114.711
124.398
131.021
136.608
141.834
146.931
151.985
157.017
162.023
166.974
171.827
176.521
180.976
185.1
188.788
191.925
194.4
196.115
196.992
106.503
125.585
131.553
135.809
139.984
144.282
148.699
153.204
157.761
162.331
166.869
171.32
175.618
179.687
183.438
186.778
189.608
191.831
193.366
194.15
171.201
146.464
141.446
141.839
144.136
147.276
150.86
154.698
158.683
162.735
166.787
170.771
174.617
178.251
181.59
184.55
187.047
189.002
190.347
191.033
159.629
151.798
147.906
147.172
148.275
150.426
153.197
156.346
159.723
163.221
166.755
170.249
173.63
176.822
179.75
182.34
184.517
186.217
187.384
187.978
155.887
153.195
151.208
150.668
151.366
152.956
155.156
157.766
160.641
163.67
166.763
169.841
172.83
175.656
178.25
180.541
182.465
183.965
184.993
185.516
154.838
153.885
153.063
152.927
153.565
154.874
156.706
158.922
161.404
164.054
166.786
169.524
172.193
174.724
177.051
179.109
180.837
182.185
183.108
183.578
154.741
154.444
154.233
154.411
155.094
156.27
157.872
159.811
162
164.357
166.805
169.273
171.693
173.997
176.122
178.005
179.591
180.828
181.678
182.11
154.942
154.916
155.014
155.391
156.128
157.242
158.7
160.45
162.427
164.567
166.804
169.072
171.309
173.45
175.434
177.2
178.692
179.86
180.664
181.073
155.168
155.264
155.518
156.009
156.787
157.868
159.237
160.861
162.693
164.681
166.77
168.903
171.019
173.06
174.963
176.668
178.117
179.257
180.044
180.446
155.3
155.452
155.786
156.339
157.142
158.205
159.52
161.064
162.802
164.695
166.694
168.749
170.806
172.807
174.69
176.392
177.851
179.007
179.81
180.221
155.279
155.459
155.833
156.421
157.238
158.291
159.574
161.072
162.758
164.601
166.561
168.594
170.65
172.672
174.598
176.361
177.888
179.111
179.966
180.407
155.079
155.272
155.667
156.272
157.097
158.146
159.415
160.891
162.558
164.389
166.355
168.416
170.527
172.634
174.671
176.563
178.229
179.581
180.538
181.034
154.685
154.885
155.289
155.904
156.734
157.782
159.046
160.52
162.192
164.044
166.053
168.188
170.409
172.664
174.887
176.994
178.884
180.447
181.569
182.158
154.09
154.293
154.702
155.32
156.152
157.201
158.469
159.952
161.646
163.542
165.625
167.874
170.257
172.727
175.219
177.64
179.867
181.752
183.135
183.87
153.293
153.496
153.904
154.522
155.353
156.403
157.675
159.173
160.899
162.853
165.032
167.426
170.017
172.769
175.623
178.479
181.192
183.561
185.347
186.316
152.292
152.493
152.898
153.51
154.336
155.381
156.655
158.166
159.924
161.939
164.222
166.781
169.615
172.71
176.024
179.463
182.861
185.953
188.377
189.733
151.09
151.288
151.684
152.286
153.099
154.132
155.398
156.912
158.691
160.758
163.138
165.86
168.952
172.434
176.298
180.487
184.835
189.014
192.475
194.504
149.691
149.882
150.266
150.85
151.64
152.65
153.894
155.392
157.17
159.263
161.711
164.57
167.901
171.773
176.25
181.35
186.979
192.791
198.005
201.305
148.101
148.283
148.649
149.207
149.964
150.934
152.135
153.591
155.336
157.411
159.876
162.807
166.307
170.509
175.578
181.685
188.939
197.168
205.448
211.407
146.329
146.499
146.842
147.363
148.074
148.986
150.121
151.503
153.17
155.171
157.573
160.474
164.011
168.38
173.866
180.874
189.926
201.492
215.212
227.467
144.387
144.542
144.855
145.332
145.981
146.817
147.859
149.131
150.671
152.528
154.772
157.507
160.882
165.132
170.633
178.019
188.397
203.664
226.44
255.783
142.29
142.428
142.705
143.127
143.703
144.443
145.365
146.492
147.855
149.497
151.482
153.898
156.879
160.634
165.516
172.173
181.978
198.325
231.103
313.441
139.311
139.422
139.645
139.983
140.444
141.035
141.768
142.658
143.726
145.001
146.519
148.333
150.508
153.135
156.324
160.181
164.696
169.301
171.242
159.541
135.28
135.352
135.497
135.715
136.009
136.381
136.834
137.37
137.992
138.702
139.498
140.369
141.29
142.202
142.979
143.365
142.843
140.419
134.306
121.87
131.049
131.081
131.144
131.238
131.358
131.504
131.668
131.843
132.015
132.167
132.267
132.268
132.098
131.642
130.723
129.068
126.274
121.785
114.933
105.178
126.73
126.723
126.709
126.682
126.64
126.573
126.472
126.321
126.098
125.774
125.308
124.643
123.7
122.37
120.51
117.934
114.416
109.713
103.623
96.0944
122.429
122.388
122.304
122.173
121.988
121.74
121.415
120.997
120.461
119.776
118.904
117.791
116.374
114.571
112.288
109.417
105.849
101.493
96.3076
90.3389
118.242
118.172
118.031
117.813
117.512
117.119
116.62
116
115.236
114.302
113.165
111.786
110.117
108.107
105.698
102.835
99.4707
95.579
91.1674
86.291
114.25
114.157
113.969
113.683
113.292
112.79
112.163
111.4
110.483
109.391
108.101
106.584
104.811
102.75
100.369
97.6442
94.5578
91.1092
87.3186
83.2317
110.515
110.404
110.181
109.843
109.385
108.803
108.087
107.229
106.215
105.033
103.665
102.096
100.306
98.2784
95.9988
93.4571
90.6511
87.5893
84.2927
80.7967
107.088
106.963
106.712
106.334
105.826
105.186
104.408
103.487
102.417
101.188
99.7916
98.2188
96.4601
94.5076
92.356
90.0038
87.4552
84.7212
81.8208
78.7808
104.01
103.872
103.597
103.185
102.636
101.95
101.126
100.163
99.0573
97.8072
96.4088
94.8584
93.1528
91.29
89.2701
87.0959
84.7741
82.3156
79.7365
77.0575
101.313
101.163
100.863
100.417
99.8271
99.0976
98.2314
97.2316
96.1002
94.8388
93.4481
91.929
90.2821
88.509
86.6128
84.5981
82.4722
80.2452
77.9302
75.5429
99.0349
98.8677
98.5363
98.0467
97.4066
96.6242
95.7081
94.6661
93.5046
92.2293
90.8447
89.3543
87.7617
86.0703
84.2843
82.409
80.4513
78.4196
76.3243
74.1777
97.2215
97.0286
96.6493
96.0951
95.3808
94.5223
93.5348
92.432
91.2253
89.9238
88.5349
87.064
85.5157
83.8942
82.2038
80.4491
78.6358
76.7705
74.8612
72.9169
95.944
95.7076
95.2481
94.5883
93.7558
92.7785
91.6818
90.4865
89.2091
87.8616
86.4528
84.9885
83.4731
81.9098
80.3018
78.6521
76.9646
75.2438
73.495
71.7249
95.3231
95.0068
94.4036
93.5613
92.5328
91.3666
90.1023
88.7692
87.3875
85.9702
84.5248
83.0553
81.5634
80.0499
78.5153
76.9602
75.3858
73.7942
72.1885
70.5725
95.5813
95.103
94.2233
93.0515
91.6921
90.2273
88.7139
87.1869
85.6652
84.157
82.664
81.1842
79.7138
78.2489
76.7857
75.3214
73.8544
72.3839
70.9105
69.4358
97.1685
96.3144
94.8544
93.0628
91.1441
89.2231
87.3633
85.5898
83.9052
82.3018
80.7669
79.2869
77.8492
76.4428
75.0588
73.6903
72.3323
70.9816
69.6363
68.2961
101.129
99.2089
96.4069
93.427
90.6029
88.0485
85.7733
83.7452
81.9204
80.2567
78.7174
77.2723
75.8975
74.5744
73.2887
72.0298
70.79
69.5638
68.3479
67.1406
110.422
104.554
98.4537
93.3587
89.3121
86.0984
83.4972
81.3357
79.4885
77.8665
76.4063
75.0624
73.8022
72.6019
71.4441
70.3164
69.2096
68.1176
67.0362
65.9632
136.015
110.546
97.7076
90.3786
85.7076
82.4471
79.9997
78.0533
76.4314
75.027
73.7718
72.6202
71.5406
70.5111
69.5162
68.5445
67.5881
66.6416
65.7016
64.7661
97.9594
34.2801
16.2255
9.80522
6.90896
5.32473
4.33648
3.66555
3.184
2.82509
2.55054
2.33681
2.16862
2.03573
1.93108
1.84974
1.78818
1.74392
1.71526
1.70116
91.9831
57.2157
37.0424
25.8916
19.4148
15.3782
12.6922
10.8072
9.42934
8.39094
7.59086
6.96488
6.47052
6.0789
5.76996
5.52946
5.34725
5.21613
5.1312
5.08943
87.461
65.5572
48.8366
37.3038
29.4805
24.0812
20.2467
17.4418
15.3352
13.7186
12.4572
11.4613
10.6696
10.0394
9.54043
9.15094
8.85523
8.64211
8.50393
8.43595
84.0203