/*--------------------------------*- C++ -*----------------------------------*\
| =========                 |                                                 |
| \\      /  F ield         | OpenFOAM: The Open Source CFD Toolbox           |
|  \\    /   O peration     | Version:  3.0.x                                 |
|   \\  /    A nd           | Web:      www.OpenFOAM.org                      |
|    \\/     M anipulation  |                                                 |
|*---------------------------------------------------------------------------*|
|* OpenFOAM for Windows 16.10 (v1)                                           *|
|* Built by CFD Support, www.cfdsupport.com (based on Symscape).             *|
\*---------------------------------------------------------------------------*/
FoamFile
{
    version     2.0;
    format      ascii;
    class       volScalarField;
    location    "5";
    object      gradTy;
}
// * * * * * * * * * * * * * * * * * * * * * * * * * * * * * * * * * * * * * //

dimensions      [0 -1 0 1 0 0 0];

internalField   nonuniform List<scalar> 
6000
(
88.2032
88.2362
88.3022
88.4009
88.532
88.6951
88.8896
89.1151
89.3709
89.6561
89.97
90.3119
90.6809
91.0761
91.4967
91.9421
92.4115
92.9043
93.42
93.9584
87.9438
87.9776
88.0452
88.1462
88.2805
88.4474
88.6464
88.8768
89.1379
89.4289
89.7489
90.0968
90.4718
90.8728
91.2989
91.7491
92.2226
92.7185
93.2364
93.7754
87.6626
87.6974
87.7667
87.8704
88.008
88.1791
88.383
88.6189
88.8859
89.1833
89.5098
89.8645
90.2461
90.6536
91.0857
91.5413
92.0194
92.5189
93.0391
93.5792
87.3593
87.3951
87.4663
87.5728
87.7142
87.8898
88.099
88.3409
88.6146
88.9189
89.2527
89.6148
90.0038
90.4184
90.8573
91.319
91.8024
92.3061
92.8291
93.3705
87.0332
87.07
87.1433
87.253
87.3985
87.5791
87.7942
88.0427
88.3236
88.6357
88.9776
89.348
89.7453
90.1679
90.6144
91.0831
91.5725
92.081
92.6075
93.1507
86.6834
86.7214
86.7971
86.9102
87.0602
87.2464
87.4679
87.7237
88.0126
88.3333
88.6843
89.0639
89.4704
89.9022
90.3572
90.8338
91.3301
91.8444
92.3751
92.9207
86.3095
86.3487
86.4269
86.5438
86.6988
86.891
87.1197
87.3835
87.6813
88.0115
88.3725
88.7625
89.1794
89.6214
90.0863
90.5719
91.0763
91.5973
92.1331
92.6819
85.9104
85.951
86.032
86.153
86.3134
86.5124
86.7489
87.0217
87.3293
87.6701
88.0423
88.4438
88.8724
89.326
89.802
90.298
90.8117
91.3406
91.8826
92.4356
85.4853
85.5275
85.6115
85.7371
85.9034
86.1097
86.3549
86.6375
86.956
87.3086
87.6933
88.1077
88.5496
89.0162
89.5049
90.0129
90.5374
91.0757
91.6252
92.1834
85.0333
85.0771
85.1645
85.295
85.4679
85.6822
85.9369
86.2303
86.5609
86.9266
87.3252
87.7542
88.2109
88.6924
89.1956
89.7173
90.2545
90.8038
91.3623
91.9271
84.5532
84.5989
84.6899
84.8257
85.0058
85.229
85.494
85.7995
86.1433
86.5236
86.9377
87.383
87.8564
88.3547
88.8744
89.412
89.9637
90.526
91.0954
91.6685
84.044
84.0916
84.1865
84.3282
84.5161
84.7489
85.0254
85.3439
85.7025
86.0988
86.5302
86.9937
87.4859
88.0032
88.5417
89.0974
89.6661
90.2437
90.8261
91.4094
83.5043
83.554
83.6531
83.8013
83.9975
84.2408
84.5298
84.8627
85.2375
85.6516
86.1021
86.5859
87.0992
87.638
88.198
88.7745
89.3629
89.9583
90.5561
91.1518
82.9327
82.9847
83.0885
83.2435
83.4489
83.7036
84.0061
84.3548
84.7473
85.181
85.6529
86.1593
86.6963
87.2593
87.8436
88.444
89.055
89.6713
90.2873
90.8981
82.3279
82.3824
82.4911
82.6534
82.8687
83.1357
83.453
83.8188
84.2307
84.6861
85.1815
85.7131
86.2767
86.8671
87.479
88.1067
88.7438
89.3844
90.022
90.6508
81.6883
81.7453
81.8593
82.0295
82.2553
82.5356
82.8689
83.2533
83.6864
84.1655
84.6869
85.2466
85.8398
86.4611
87.1044
87.7632
88.4306
89.0993
89.7623
90.4127
81.0121
81.0719
81.1914
81.37
81.6071
81.9016
82.252
82.6565
83.1127
83.6177
84.1678
84.7587
85.385
86.041
86.7199
87.4143
88.1164
88.8179
89.5106
90.1866
80.2976
80.3603
80.4857
80.6732
80.9222
81.2317
81.6005
82.0266
82.5078
83.0411
83.6227
84.2479
84.9113
85.6063
86.3254
87.0605
87.8026
88.5422
89.2697
89.976
79.5429
79.6087
79.7402
79.937
80.1985
80.524
80.9122
81.3615
81.8696
82.4336
83.0495
83.7127
84.4172
85.156
85.9208
86.7023
87.4904
88.2741
89.0424
89.7845
78.7461
78.8151
78.9529
79.1593
79.4339
79.7761
80.1849
80.6587
81.1956
81.7927
82.4462
83.1511
83.9012
84.689
85.5054
86.3399
87.1809
88.0159
88.8319
89.6163
94.7436
95.8259
96.9833
98.2211
99.5471
100.972
102.511
104.18
106
107.994
110.188
112.61
115.292
118.267
121.568
125.233
129.298
133.8
138.775
144.258
94.5595
95.6351
96.7795
97.9975
99.2964
100.687
102.184
103.804
105.568
107.499
109.624
111.972
114.575
117.467
120.683
124.261
128.239
132.656
137.55
142.96
94.3624
95.4308
96.5614
97.758
99.0279
100.381
101.833
103.4
105.103
106.966
109.017
111.284
113.801
116.603
119.726
123.21
127.093
131.418
136.224
141.553
94.1532
95.2143
96.3304
97.5042
98.7428
100.056
101.459
102.969
104.607
106.397
108.367
110.547
112.972
115.676
118.698
122.08
125.861
130.084
134.795
140.035
93.9332
94.9872
96.088
97.2378
98.4432
99.7141
101.065
102.513
104.081
105.792
107.675
109.762
112.087
114.686
117.6
120.87
124.541
128.655
133.261
138.404
93.7038
94.7508
95.8359
96.9604
98.1305
99.3559
100.651
102.034
103.526
105.153
106.944
108.93
111.148
113.635
116.431
119.582
123.133
127.129
131.621
136.658
93.4664
94.5068
95.5759
96.674
97.8068
98.9839
100.22
101.532
102.944
104.481
106.173
108.052
110.155
112.521
115.193
118.215
121.636
125.505
129.873
134.793
93.2225
94.2571
95.3099
96.3806
97.4741
98.6001
99.7729
101.011
102.338
103.779
105.365
107.13
109.11
111.347
113.885
116.769
120.051
123.782
128.016
132.809
92.9742
94.0038
95.0404
96.0826
97.135
98.207
99.3133
100.473
101.709
103.048
104.522
106.165
108.015
110.114
112.508
115.245
118.378
121.96
126.049
130.702
92.7233
93.7492
94.7698
95.7828
96.7922
97.8073
98.8432
99.9193
101.059
102.291
103.646
105.16
106.871
108.823
111.063
113.643
116.616
120.038
123.97
128.472
92.472
93.4957
94.5008
95.4838
96.4483
97.4037
98.3654
99.3533
100.392
101.51
102.739
104.115
105.679
107.475
109.552
111.963
114.765
118.016
121.779
126.117
92.2225
93.246
94.2362
95.1886
96.1062
96.9988
97.8823
98.7773
99.7091
100.706
101.802
103.033
104.441
106.071
107.975
110.206
112.825
115.892
119.474
123.635
91.9773
93.0029
93.979
94.9002
95.769
96.5958
97.397
98.1941
99.0131
99.8836
100.839
101.917
103.159
104.614
106.332
108.372
110.796
113.667
117.054
121.024
91.7392
92.7696
93.7327
94.622
95.4401
96.1977
96.9124
97.6065
98.3069
99.0439
99.8515
100.768
101.836
103.104
104.627
106.463
108.679
111.341
114.52
118.285
91.5112
92.5494
93.5009
94.3579
95.1231
95.8081
96.4318
97.0176
97.5935
98.1903
98.8424
99.5888
100.473
101.544
102.859
104.479
106.473
108.912
111.869
115.416
91.2966
92.3464
93.2878
94.1119
94.8219
95.4306
95.9586
96.4307
96.8759
97.3257
97.8148
98.3824
99.0727
99.9361
101.031
102.421
104.18
106.381
109.102
112.416
91.0992
92.1648
93.0978
93.8884
94.5406
95.0691
95.4964
95.8492
96.1574
96.4532
96.7717
97.1519
97.6383
98.2824
99.144
100.291
101.799
103.747
106.217
109.285
90.923
92.0093
92.936
93.6923
94.2838
94.7277
95.049
95.2764
95.4414
95.5763
95.7164
95.9003
96.1728
96.5858
97.2009
98.0891
99.3305
101.01
103.214
106.023
90.7727
91.8854
92.8078
93.5288
94.0562
94.4104
94.62
94.7161
94.7313
94.6985
94.6524
94.6314
94.6795
94.8493
95.2039
95.8176
96.7758
98.17
100.093
102.627
90.6536
91.7991
92.7195
93.4037
93.8628
94.1219
94.2135
94.1718
94.0307
93.8232
93.5835
93.3488
93.1622
93.0763
93.1557
93.4782
94.1349
95.2253
96.8497
99.097
149.278
153.546
158.072
162.864
167.925
173.259
178.865
184.741
190.88
197.269
203.892
210.723
217.73
224.872
232.098
239.347
246.552
253.638
260.528
267.149
147.928
152.16
156.658
161.432
166.488
171.832
177.467
183.394
189.611
196.11
202.877
209.894
217.128
224.54
232.075
239.666
247.231
254.681
261.915
268.839
146.463
150.655
155.122
159.875
164.924
170.276
175.939
181.919
188.217
194.831
201.753
208.967
216.447
224.152
232.027
239.995
247.963
255.819
263.441
270.706
144.881
149.028
153.46
158.187
163.224
168.581
174.271
180.302
186.682
193.415
200.498
207.922
215.666
223.69
231.937
240.324
248.743
257.061
265.126
272.782
143.178
147.275
151.665
156.362
161.382
166.74
172.451
178.53
184.99
191.843
199.092
206.736
214.76
223.128
231.784
240.64
249.57
258.416
266.993
275.103
141.352
145.392
149.734
154.393
159.389
164.741
170.467
176.588
183.124
190.094
197.511
205.382
213.7
222.439
231.544
240.922
250.433
259.891
269.067
277.712
139.399
143.375
147.661
152.275
157.239
162.575
168.307
174.462
181.066
188.147
195.728
203.828
212.453
221.587
231.182
241.144
251.32
261.491
271.376
280.661
137.317
141.22
145.442
150.001
154.923
160.233
165.96
172.136
178.796
185.976
193.714
202.041
210.98
220.53
230.657
241.271
252.209
263.217
273.952
284.011
135.102
138.925
143.072
147.567
152.435
157.706
163.413
169.595
176.295
183.559
191.438
199.983
209.235
219.217
229.915
241.255
253.067
265.065
276.829
287.838
132.753
136.485
140.548
144.966
149.768
154.985
160.656
166.824
173.542
180.868
188.867
197.61
207.165
217.585
228.889
241.028
253.843
267.017
280.041
292.238
130.267
133.899
137.866
142.195
146.916
152.063
157.677
163.81
170.519
177.877
185.965
194.877
204.712
215.561
227.492
240.501
254.46
269.036
283.621
297.327
127.642
131.163
135.024
139.251
143.874
148.932
154.468
160.538
167.208
174.562
182.697
191.734
201.806
213.057
225.615
239.551
254.803
271.052
287.591
303.257
124.877
128.277
132.019
136.129
140.64
145.589
151.023
157
163.594
170.898
179.029
188.13
198.377
209.971
223.125
238.017
254.702
272.938
291.948
310.216
121.971
125.239
128.85
132.83
137.211
142.03
147.335
153.187
159.664
166.868
174.929
184.018
194.35
206.193
219.862
235.686
253.912
274.48
296.636
318.443
118.922
122.048
125.516
129.353
133.587
138.255
143.405
149.097
155.411
162.456
170.373
179.353
189.65
201.602
215.641
232.288
252.08
275.317
301.478
328.225
115.732
118.705
122.019
125.699
129.769
134.266
139.233
144.73
150.834
157.656
165.344
174.102
184.216
196.085
210.261
227.493
248.717
274.855
306.061
339.876
112.399
115.21
118.361
121.87
125.763
130.069
134.827
140.092
145.939
152.472
159.839
168.248
178.002
189.542
203.523
220.924
243.169
272.14
309.483
353.651
108.924
111.565
114.542
117.872
121.573
125.67
130.195
135.196
140.738
146.917
153.87
161.797
170.994
181.913
195.265
212.201
234.634
265.703
309.873
369.479
105.306
107.77
110.567
113.708
117.207
121.08
125.352
130.059
135.254
141.019
147.469
154.781
163.221
173.204
185.414
201.034
222.26
253.443
303.403
386.243
101.545
103.826
106.438
109.386
112.675
116.314
120.316
124.704
129.518
134.815
140.685
147.264
154.761
163.505
174.048
187.377
205.459
232.839
282.32
399.916
275.53
284.883
293.019
299.994
305.978
311.212
315.973
320.561
325.3
330.548
336.72
344.325
354.011
366.64
383.388
405.906
436.526
478.326
533.152
578.828
277.539
287.057
295.111
301.803
307.361
312.078
316.257
320.201
324.209
328.593
333.695
339.91
347.713
357.679
370.479
386.788
406.831
428.417
437.525
354.082
279.766
289.464
297.423
303.793
308.879
313.029
316.579
319.831
323.059
326.524
330.492
335.242
341.07
348.265
357.009
367.074
376.891
380.504
356.708
229.292
282.254
292.151
299.988
305.989
310.546
314.077
316.949
319.465
321.87
324.375
327.164
330.401
334.208
338.604
343.328
347.399
347.943
336.976
292.469
157.488
285.052
295.167
302.848
308.416
312.379
315.231
317.377
319.116
320.666
322.181
323.765
325.469
327.252
328.89
329.752
328.288
320.837
298.815
242.706
114.484
288.222
298.573
306.045
311.101
314.388
316.498
317.869
318.798
319.468
319.975
320.347
320.524
320.32
319.301
316.547
310.136
296.063
266.108
204.481
87.5986
291.837
302.44
309.629
314.067
316.587
317.882
318.432
318.522
318.295
317.791
316.959
315.641
313.517
309.989
303.928
293.209
273.829
238.468
175.098
70.0437
295.991
306.853
313.653
317.341
318.98
319.386
319.068
318.295
317.166
315.66
313.649
310.886
306.94
301.081
292.053
277.668
254.152
215.31
152.384
58.0941
300.802
311.915
318.176
320.942
321.571
321.006
319.777
318.126
316.098
313.609
310.46
306.32
300.668
292.682
281.036
263.588
236.928
196.005
134.688
49.6484
306.429
317.753
323.257
324.886
324.354
322.731
320.554
318.017
315.104
311.664
307.429
301.996
294.77
284.867
270.948
250.982
221.986
179.963
120.787
43.4839
313.082
324.523
328.958
329.175
327.311
324.546
321.389
317.968
314.194
309.847
304.59
297.958
289.3
277.695
261.827
239.821
209.128
166.666
109.787
38.8657
321.055
332.415
335.335
333.797
330.412
326.423
322.267
317.975
313.376
308.174
301.972
294.245
284.302
271.206
253.688
230.05
198.153
155.675
101.033
35.3371
330.771
341.656
342.425
338.715
333.61
328.327
323.166
318.032
312.654
306.663
299.597
290.887
279.808
265.424
246.528
221.601
188.871
146.63
94.0486
32.6051
342.856
352.516
350.231
343.856
336.837
330.211
324.061
318.128
312.031
305.322
297.486
287.908
275.843
260.364
240.333
214.399
181.111
139.24
88.4818
30.4757
358.279
365.287
358.691
349.101
340
332.019
324.921
318.25
311.506
304.163
295.652
285.327
272.424
256.033
235.083
208.375
174.723
133.272
84.0746
28.8175
378.59
380.235
367.631
354.267
342.984
333.686
325.712
318.384
311.076
303.19
294.11
283.159
269.563
252.431
230.753
203.462
169.584
128.544
80.6368
27.5399
406.381
397.463
376.691
359.1
345.651
335.141
326.401
318.515
310.739
302.408
292.866
281.413
267.268
249.556
227.322
199.603
165.59
124.914
78.0295
26.5795
446.146
416.587
385.243
363.27
347.847
336.312
326.952
318.627
310.49
301.82
291.929
280.098
265.544
247.405
224.768
196.75
162.663
122.278
76.1525
25.8925
505.972
435.997
392.296
366.392
349.421
337.136
327.338
318.71
310.326
301.427
291.301
279.219
264.393
245.974
223.075
194.868
160.744
120.561
74.937
25.4495
600.941
451.203
396.502
368.084
350.246
337.561
327.537
318.754
310.245
301.23
290.987
278.778
263.818
245.259
222.232
193.934
159.793
119.714
74.3396
25.2323
77.9052
77.9773
78.1216
78.338
78.6261
78.9856
79.4159
79.9157
80.4832
81.1158
81.8099
82.5605
83.3611
84.2037
85.0783
85.9733
86.8753
87.7698
88.6417
89.476
77.0181
77.0935
77.2443
77.4707
77.7726
78.1499
78.6024
79.1292
79.729
80.3996
81.1375
81.9379
82.7942
83.698
84.6383
85.6022
86.5744
87.5381
88.4755
89.3687
76.0827
76.1613
76.3187
76.555
76.8707
77.2661
77.7413
78.2961
78.9297
79.6403
80.425
81.2795
82.197
83.1688
84.1832
85.2257
86.2789
87.3233
88.3376
89.3004
75.0971
75.1788
75.3424
75.5886
75.9179
76.3313
76.8294
77.4126
78.081
78.8335
79.6681
80.5807
81.5652
82.6124
83.7102
84.8423
85.9891
87.1276
88.2326
89.278
74.0592
74.1438
74.3134
74.5689
74.9114
75.3422
75.8629
76.4746
77.1784
77.9743
78.8611
79.8359
80.8931
82.0238
83.2151
84.4496
85.7047
86.9535
88.1657
89.3095
72.9671
73.0543
73.2294
73.4935
73.8482
74.2956
74.838
75.4777
76.2168
77.0568
77.9979
79.0384
80.174
81.3964
82.6926
84.0436
85.4243
86.8029
88.1427
89.4043
71.8191
71.9087
72.0885
72.3602
72.7258
73.1883
73.7508
74.4171
75.1906
76.0745
77.0709
78.1801
79.3993
80.7218
82.1348
83.6187
85.1452
86.6771
88.1697
89.5737
70.6139
70.7053
70.8889
71.1666
71.5414
72.0168
72.5973
73.2879
74.0938
75.0203
76.0718
77.2513
78.5586
79.9891
81.5318
83.1666
84.8625
86.5765
88.2536
89.831
69.3503
69.4428
69.6289
69.9111
70.2926
70.7782
71.3734
72.0848
72.9198
73.886
74.9909
76.2406
77.6389
79.1847
80.8697
82.6753
84.5684
86.4995
88.4012
90.1928
68.0274
68.1203
68.3076
68.5919
68.9773
69.4694
70.0751
70.8027
71.6619
72.663
73.8172
75.135
76.6248
78.2911
80.1306
82.1279
84.25
86.4412
88.6193
90.6791
66.645
66.7375
66.9241
67.2079
67.5937
68.0879
68.6988
69.4365
70.3131
71.3422
72.5389
73.9192
75.4978
77.2867
79.2904
81.5005
83.8875
86.3913
88.913
91.3148
65.2034
65.2945
65.4785
65.7587
66.1407
66.6317
67.2413
67.9814
68.8666
69.914
71.1432
72.5764
74.2363
76.1448
78.3181
80.76
83.4502
86.3298
89.2836
92.1304
63.7035
63.7921
63.9711
64.2444
64.6179
65.0996
65.7003
66.4335
67.3164
68.3693
69.6171
71.0884
72.8158
74.8335
77.1741
79.8604
82.8918
86.2209
89.7225
93.1628
62.1469
62.2318
62.4035
62.666
63.0257
63.4913
64.0743
64.7899
65.6572
66.7
67.9478
69.4366
71.2094
73.3155
75.8087
78.7401
82.1427
86.0016
90.2008
94.4522
60.536
60.6159
60.7777
61.0255
61.3658
61.8078
62.3636
63.0493
63.8857
64.8995
66.1243
67.6031
69.3896
71.5498
74.163
77.3182
81.1018
85.5644
90.6456
96.0321
58.8739
58.9476
59.0968
59.3258
59.6409
60.0514
60.5696
61.2122
62.0008
62.9638
64.1383
65.5728
67.3306
69.4942
72.1703
75.494
79.6262
84.7315
90.895
97.8928
57.1648
57.2309
57.365
57.571
57.8551
58.2261
58.6962
59.2817
60.0042
60.8928
61.986
63.3356
65.0118
67.1105
69.7633
73.1524
77.5279
83.2212
90.6106
99.8701
55.4133
55.4706
55.5871
55.7662
56.0135
56.3373
56.7489
57.2633
57.9014
58.6908
59.6694
60.8893
62.4227
64.3721
66.8851
70.1795
74.5863
80.6254
89.1292
101.312
53.6251
53.6726
53.7691
53.9176
54.1231
54.3924
54.7356
55.1659
55.7017
56.3677
57.1985
58.2422
59.5673
61.2729
63.5067
66.4947
70.5999
76.4521
85.2932
100.078
51.8066
51.8433
51.9179
52.0327
52.1916
52.4003
52.6665
53.001
53.4185
53.9392
54.5914
55.4151
56.4683
57.8358
59.6457
62.0949
65.4955
70.3659
77.6531
89.4866
90.5716
91.7573
92.6778
93.323
93.7088
93.8664
93.8334
93.6472
93.3431
92.9544
92.5137
92.0566
91.625
91.2707
91.0594
91.0727
91.4084
92.1752
93.4837
95.4305
90.5337
91.7679
92.6905
93.2935
93.5999
93.6486
93.4834
93.1458
92.6723
92.0958
91.4471
90.7595
90.0725
89.4368
88.9188
88.6035
88.5966
89.0181
89.9916
91.6244
90.5479
91.8401
92.7662
93.3226
93.5418
93.4729
93.1675
92.6712
92.0219
91.2513
90.3881
89.4621
88.5099
87.5797
86.738
86.0735
85.7002
85.7519
86.3693
87.6742
90.6236
91.9845
92.9149
93.4182
93.5406
93.344
92.8893
92.2267
91.3953
90.4252
89.3414
88.1699
86.9428
85.7051
84.5221
83.4859
82.7197
82.374
82.6112
83.5736
90.7722
92.2139
93.1479
93.5892
93.6023
93.2661
92.652
91.8156
90.7961
89.6214
88.3121
86.8887
85.3778
83.8196
82.2773
80.845
79.6562
78.881
78.7099
79.3134
91.0076
92.5436
93.4783
93.8447
93.733
93.243
92.4587
91.4405
90.2277
88.8442
87.3053
85.6248
83.8222
81.9311
80.0107
78.1561
76.511
75.2686
74.6555
74.8813
91.3467
92.9921
93.921
94.1946
93.9384
93.2781
92.3116
91.104
89.693
88.0977
86.3265
84.3851
82.284
80.0484
77.731
75.4259
73.2862
71.532
70.4355
70.2605
91.8111
93.5821
94.4931
94.6493
94.2237
93.3738
92.2122
90.8077
89.1947
87.386
85.3814
83.1769
80.7723
78.182
75.4489
72.663
69.9853
67.6654
66.0334
65.4283
92.4286
94.342
95.2144
95.2189
94.5928
93.531
92.1609
90.5525
88.7351
86.7129
84.4758
82.0082
79.2973
76.3438
73.1771
69.8787
66.6137
63.6629
61.4284
60.3542
93.2359
95.3076
96.107
95.9132
95.048
93.7491
92.1567
90.3386
88.316
86.0823
83.6158
80.8876
77.8703
74.5477
70.9314
67.0879
63.18
59.519
56.5943
54.9965
94.2834
96.5245
97.1958
96.74
95.5888
94.0251
92.197
90.1652
87.9386
85.4978
82.8074
79.8241
76.5036
72.8096
68.7306
64.3098
59.6976
55.2296
51.4981
49.2983
95.6422
98.0515
98.5073
97.7042
96.2112
94.3533
92.2776
90.0301
87.6035
84.9625
82.0569
78.8272
75.2106
71.1476
66.5973
61.5695
56.1868
50.7946
46.0994
43.1804
97.4169
99.9644
100.067
98.8045
96.9057
94.7246
92.3922
89.9305
87.3107
84.4795
81.3703
77.9068
74.0059
69.5818
64.5584
58.8993
52.6778
46.222
40.3499
36.5302
99.7687
102.36
101.898
100.031
97.6559
95.1257
92.5322
89.8621
87.0596
84.0515
80.7537
77.0728
72.9044
68.1344
62.645
56.3401
49.2151
41.5341
34.1949
29.1833
102.959
105.359
104.005
101.357
98.4369
95.5392
92.6875
89.8198
86.8491
83.6806
80.2128
76.335
71.9218
66.8291
60.8928
53.9429
45.8622
36.7787
27.5802
20.8913
107.434
109.1
106.368
102.737
99.2136
95.9437
92.8458
89.7978
86.6778
83.3689
79.7529
75.703
71.0734
65.6904
59.3408
51.769
42.7075
32.0459
20.4697
11.2644
114.004
113.708
108.909
104.095
99.9402
96.3141
92.9944
89.79
86.5437
83.1177
79.3788
75.1854
70.3739
64.7426
58.0302
49.8894
39.8689
27.4939
12.8909
-0.334715
124.222
119.207
111.453
105.323
100.563
96.624
93.1201
89.7905
86.4451
82.9284
79.0944
74.7899
69.8363
64.0083
57.0017
48.3812
37.4953
23.3818
5.04009
-14.9935
141.248
125.247
113.676
106.281
101.022
96.848
93.2114
89.7941
86.3805
82.8017
78.9029
74.5226
69.4714
63.5069
56.2921
47.3204
35.7592
20.1051
-2.47658
-34.6454
171.892
130.411
115.074
106.816
101.268
96.9658
93.2595
89.7969
86.3485
82.7382
78.8067
74.3879
69.2869
63.2524
55.9295
46.771
34.8317
18.1967
-8.09949
-62.8616
97.6416
99.7363
102.16
104.912
107.988
111.386
115.108
119.161
123.566
128.356
133.586
139.34
145.746
153.007
161.443
171.607
184.528
202.411
230.963
289.08
93.593
95.4999
97.7365
100.293
103.157
106.314
109.752
113.462
117.444
121.702
126.254
131.125
136.353
141.986
148.071
154.611
161.39
167.242
166.467
128.766
89.3968
91.1171
93.1705
95.5386
98.1968
101.118
104.275
107.643
111.198
114.918
118.78
122.751
126.779
130.764
134.497
137.508
138.664
135.018
118.381
66.1556
85.0486
86.5862
88.4647
90.6549
93.1193
95.8168
98.7047
101.74
104.878
108.071
111.257
114.352
117.225
119.655
121.244
121.229
118.073
108.568
86.1132
39.1385
80.5414
81.9039
83.6204
85.6492
87.9383
90.431
93.0688
95.7914
98.5352
101.227
103.775
106.051
107.867
108.919
108.704
106.347
100.304
87.8736
64.7426
26.0335
75.8653
77.0642
78.6373
80.5277
82.6667
84.9807
87.395
89.8335
92.215
94.4469
96.4129
97.9557
98.8483
98.747
97.1156
93.1034
85.3731
71.9349
50.2957
18.8654
71.0063
72.0581
73.5133
75.2958
77.3173
79.4858
81.7106
83.9008
85.9614
87.7849
89.2392
90.1492
90.2715
89.255
86.5853
81.5122
72.9792
59.6411
40.2003
14.4975
65.9451
66.8727
68.2437
69.9577
71.9024
73.966
76.0414
78.0256
79.8131
81.2872
82.3073
82.6928
82.2008
80.4976
77.1233
71.4587
62.7209
50.0597
32.8882
11.5927
60.6553
61.4902
62.8217
64.517
66.4348
68.4408
70.4129
72.2378
73.8041
74.9911
75.6574
75.6263
74.6684
72.4829
68.6792
62.7709
54.2065
42.4829
27.4088
9.52784
55.1014
55.8871
57.238
58.9775
60.928
62.9308
64.8497
66.5651
67.9636
68.9264
69.3176
68.9717
67.6817
65.1874
61.1703
55.2638
47.096
36.3951
23.177
7.98508
49.2357
50.0328
51.4816
53.3443
55.398
57.458
59.377
61.0333
62.3168
63.1158
63.3053
62.7368
61.2302
58.5686
54.5013
48.7616
41.1113
31.4262
19.8225
6.78819
42.9933
43.8889
45.5413
47.6262
49.8652
52.048
54.0211
55.6671
56.8853
57.5761
57.6299
56.9188
55.2919
52.5745
48.5756
43.1086
36.0311
27.3099
17.1038
5.83223
36.2865
37.4085
39.4087
41.8395
44.3573
46.7312
48.8106
50.4912
51.6882
52.3195
52.2944
51.508
49.8384
47.15
43.3025
38.1714
31.6813
23.8536
14.8587
5.05089
28.9942
30.5379
33.0848
36.0141
38.9135
41.5452
43.7773
45.5301
46.7426
47.3546
47.2974
46.4896
44.8377
42.2405
38.5998
33.8382
27.9261
20.916
12.9748
4.40022
20.9487
23.2215
26.5908
30.2021
33.5887
36.5368
38.9571
40.8092
42.0639
42.6872
42.6339
41.8464
40.2571
37.795
34.3954
30.0162
24.6589
18.3922
11.3725
3.84993
11.9136
15.4178
19.9893
24.49
28.4587
31.7629
34.3894
36.3537
37.6658
38.3206
38.2968
37.5595
36.0645
33.766
30.6263
26.629
21.7959
16.2031
9.99354
3.37846
1.55173
7.13975
13.4193
19.0143
23.6241
27.2901
30.1161
32.1881
33.5598
34.2555
34.2769
33.6093
32.229
30.111
27.2383
23.6133
19.2706
14.2881
8.79487
2.97002
-10.6229
-1.44564
7.1534
13.9766
19.2089
23.1907
26.1779
28.3338
29.7542
30.4901
30.5631
29.9759
28.7214
26.7914
24.1846
20.9167
17.0296
12.6001
7.74358
2.61278
-25.3225
-9.77406
1.67682
9.64579
15.3495
19.5333
22.6092
24.8063
26.2527
27.0194
27.1427
26.6389
25.5141
23.7726
21.4247
18.4951
15.0298
11.1018
6.81421
2.29765
-43.6176
-16.2814
-2.25227
6.3218
12.1656
16.3682
19.4312
21.6123
23.0534
23.8347
24.0011
23.578
22.5809
21.0232
18.9234
16.3117
13.2355
9.7633
5.98663
2.01751
-33.6314
-14.2514
-3.24249
4.08072
9.32656
13.202
16.0694
18.1321
19.5107
20.2783
20.4807
20.1473
19.2998
17.9586
16.1477
13.9006
11.2634
8.2982
5.0835
1.71229
-8.54445
-6.77003
-1.81369
2.99224
7.01534
10.2222
12.6948
14.5188
15.7626
16.4763
16.6969
16.4527
15.7676
14.6654
13.1733
11.3252
9.1639
6.74301
4.12691
1.38938
-2.32085
-2.47053
-0.234448
2.6866
5.52033
7.97679
9.9687
11.4859
12.5444
13.1674
13.378
13.1989
12.6524
11.7621
10.555
9.06298
7.324
5.38302
3.29175
1.10771
-0.589286
-0.556758
0.659842
2.46829
4.40261
6.19593
7.71733
8.91157
9.76199
10.2707
10.4489
10.3126
9.88086
9.17555
8.22165
7.0477
5.68612
4.1733
2.54935
0.857415
-0.0688039
0.172956
0.962294
2.12413
3.42588
4.68699
5.79313
6.6811
7.32124
7.70451
7.83432
7.72175
7.38292
6.8376
6.10835
5.22006
4.19946
3.07471
1.87497
0.630022
0.0723188
0.355099
0.892247
1.64006
2.48979
3.33302
4.08712
4.69846
5.13735
5.39179
5.46211
5.35715
5.09149
4.68358
4.15411
3.52475
2.81698
2.05114
1.24581
0.41774
0.0753002
0.282872
0.611522
1.05407
1.56021
2.06818
2.52389
2.88825
3.13792
3.26319
3.26521
3.15324
2.94234
2.65113
2.29977
1.90787
1.4926
1.06707
0.639409
0.212868
0.0213056
0.0895561
0.216882
0.404492
0.628777
0.855603
1.05199
1.19273
1.26288
1.25786
1.18229
1.04829
0.873502
0.678853
0.485975
0.314376
0.178505
0.085151
0.0318744
0.00717373
-0.0583351
-0.162846
-0.238054
-0.28177
-0.305202
-0.326544
-0.364258
-0.432216
-0.537001
-0.676927
-0.842201
-1.01588
-1.17546
-1.29519
-1.34909
-1.31484
-1.17812
-0.936865
-0.60426
-0.208891
-0.150141
-0.444557
-0.724485
-0.988321
-1.24128
-1.49233
-1.75027
-2.02033
-2.30174
-2.58636
-2.85828
-3.09413
-3.26427
-3.33504
-3.27231
-3.04654
-2.63928
-2.05026
-1.30317
-0.44736
-0.247814
-0.740757
-1.22701
-1.70575
-2.17926
-2.65121
-3.12417
-3.59711
-4.06324
-4.50847
-4.91042
-5.23808
-5.45244
-5.50841
-5.35858
-4.95973
-4.28222
-3.32173
-2.1108
-0.724712
-0.348174
-1.04364
-1.73704
-2.42842
-3.11881
-3.80908
-4.49809
-5.18067
-5.84562
-6.47386
-7.03682
-7.4953
-7.79901
-7.88756
-7.69387
-7.15159
-6.20812
-4.84363
-3.09354
-1.06539
-0.449407
-1.3486
-2.2491
-3.15206
-4.05848
-4.9682
-5.87841
-6.78184
-7.6647
-8.5045
-9.2677
-9.90728
-10.3607
-10.5489
-10.3777
-9.74465
-8.55503
-6.75109
-4.35431
-1.5087
-0.550258
-1.65226
-2.75868
-3.87223
-4.99484
-6.12682
-7.2655
-8.40355
-9.52682
-10.6117
-11.6222
-12.5054
-13.1877
-13.5698
-13.5234
-12.8942
-11.5162
-9.25137
-6.06391
-2.12381
-0.649621
-1.95149
-3.26115
-4.58331
-5.92181
-7.27871
-8.65321
-10.04
-11.4273
-12.7935
-14.1038
-15.3044
-16.315
-17.0189
-17.252
-16.7926
-15.3643
-12.6743
-8.52618
-3.04647
-0.746352
-2.24294
-3.75109
-5.27807
-6.83036
-8.41299
-10.0286
-11.6761
-13.3487
-15.0311
-16.6952
-18.2934
-19.7488
-20.939
-21.6731
-21.6597
-20.4742
-17.5552
-12.3201
-4.58236
-0.839192
-2.52284
-4.22219
-5.94751
-7.70856
-9.51428
-11.3721
-13.2871
-15.2604
-17.2871
-19.3524
-21.4254
-23.4479
-25.3152
-26.8416
-27.6989
-27.3177
-24.7523
-18.6167
-7.54521
-0.926774
-2.78701
-4.66734
-6.58121
-8.54211
-10.5635
-12.6585
-14.8397
-17.1187
-19.5046
-22.0021
-24.6078
-27.3021
-30.0325
-32.6791
-34.9769
-36.3452
-35.5197
-29.8492
-14.527
-1.00766
-3.03109
-5.07895
-7.1679
-9.31522
-11.539
-13.8586
-16.2947
-18.8702
-21.6103
-24.5435
-27.7017
-31.1201
-34.8337
-38.8655
-43.1843
-47.5667
-51.132
-50.7334
-35.2404
-1.08045
-3.25075
-5.44946
-7.69623
-10.0119
-12.4188
-14.9421
-17.6104
-20.4571
-23.5231
-26.86
-30.5355
-34.6428
-39.3168
-44.765
-51.3281
-59.6051
-70.7083
-86.7119
-110.942
-1.16052
-3.4923
-5.85659
-8.27609
-10.7752
-13.3807
-16.1234
-19.0391
-22.1716
-25.5757
-29.3229
-33.5103
-38.2748
-43.819
-50.4589
-58.7195
-69.5427
-84.7927
-108.64
-151.851
-1.23634
-3.72073
-6.24062
-8.82085
-11.4882
-14.2723
-17.2071
-20.3323
-23.6962
-27.3588
-31.3967
-35.9105
-41.0354
-46.9566
-53.9313
-62.3174
-72.5993
-85.3704
-101.109
-119.156
-1.27961
-3.85057
-6.45701
-9.12364
-11.8768
-14.7454
-17.7616
-20.9625
-24.3913
-28.0993
-32.1483
-36.6132
-41.5841
-47.1676
-53.4833
-60.649
-68.7417
-77.7053
-87.1655
-96.1153
-1.29031
-3.88183
-6.50618
-9.18599
-11.9449
-14.8082
-17.8032
-20.9597
-24.3106
-27.8924
-31.7448
-35.9101
-40.431
-45.3448
-50.6737
-56.4059
-62.4645
-68.6611
-74.6394
-79.8363
-1.27079
-3.82183
-6.40133
-9.02854
-11.7231
-14.5054
-17.396
-20.4166
-23.5887
-26.9338
-30.4719
-34.2196
-38.1862
-42.3688
-46.744
-51.2563
-55.8036
-60.2234
-64.2838
-67.6965
-1.225
-3.68278
-6.1639
-8.68385
-11.2579
-13.9012
-16.6282
-19.4524
-22.3861
-25.4391
-28.6171
-31.9206
-35.3411
-38.858
-42.4338
-46.0089
-49.4972
-52.7836
-55.7276
-58.177
-1.15756
-3.47887
-5.81862
-8.18873
-10.6006
-13.0646
-15.5899
-18.1842
-20.8525
-23.5966
-26.414
-29.2966
-32.2282
-35.1835
-38.1253
-41.003
-43.7519
-46.2947
-48.5458
-50.4195
-1.07295
-3.22372
-5.38896
-7.57773
-9.79821
-12.0573
-14.3604
-16.7105
-19.1081
-21.5504
-24.0303
-26.536
-29.0497
-31.5467
-33.995
-36.3548
-38.5793
-40.6164
-42.412
-43.915
-0.97477
-2.92837
-4.89391
-6.87859
-8.88847
-10.9281
-13.0001
-15.1048
-17.2397
-19.3995
-21.575
-23.7534
-25.9175
-28.0453
-30.1105
-32.0824
-33.9272
-35.6087
-37.0914
-38.3424
-0.865317
-2.59983
-4.34567
-6.10938
-7.89607
-9.70895
-11.5491
-13.4149
-15.3025
-17.2047
-19.1118
-21.0108
-22.8857
-24.7177
-26.4849
-28.1636
-29.7283
-31.1534
-32.4139
-33.4877
-0.745073
-2.23979
-3.74775
-5.27632
-6.83084
-8.41415
-10.0264
-11.6649
-13.3243
-14.9965
-16.671
-18.335
-19.9734
-21.5696
-23.1053
-24.5611
-25.9174
-27.1548
-28.255
-29.2021
-0.612119
-1.84291
-3.09257
-4.37117
-5.68557
-7.03894
-8.43073
-9.85692
-11.3105
-12.7819
-14.2595
-15.7299
-17.1785
-18.5897
-19.9473
-21.2351
-22.4367
-23.5369
-24.5215
-25.3783
-0.46095
-1.39362
-2.35697
-3.36654
-4.43203
-5.557
-6.73945
-7.97282
-9.24717
-10.5501
-11.8678
-13.1853
-14.4873
-15.7584
-16.9835
-18.1479
-19.2377
-20.2399
-21.1432
-21.9375
-0.279864
-0.859122
-1.49295
-2.20656
-3.01326
-3.91539
-4.90666
-5.97488
-7.10432
-8.27752
-9.4765
-10.6836
-11.8817
-13.055
-14.1883
-15.2681
-16.2817
-17.2181
-18.0675
-18.8217
-0.0445331
-0.173034
-0.407312
-0.787954
-1.32941
-2.02616
-2.86012
-3.80687
-4.8399
-5.93323
-7.0627
-8.2065
-9.3453
-10.4621
-11.5419
-12.5717
-13.5403
-14.4379
-15.2563
-15.9886
0.300345
0.806895
1.08491
1.07739
0.785813
0.244212
-0.500311
-1.39918
-2.408
-3.48856
-4.60903
-5.7433
-6.87004
-7.97183
-9.03433
-10.0457
-10.9963
-11.8778
-12.6838
-13.4091
0.906729
2.42167
3.37026
3.73184
3.59557
3.07829
2.28828
1.31393
0.223243
-0.932921
-2.11692
-3.30089
-4.46404
-5.59067
-6.66874
-7.68888
-8.64374
-9.52752
-10.3358
-11.065
2.34234
5.60964
7.28619
7.76922
7.46378
6.67
5.58898
4.35033
3.03656
1.70029
0.375359
-0.916093
-2.15933
-3.34428
-4.46387
-5.51307
-6.48821
-7.38668
-8.20661
-8.94674
7.71511
13.2164
14.5175
13.9968
12.6885
11.0596
9.32761
7.59546
5.91251
4.30207
2.77472
1.33475
-0.0165746