/*--------------------------------*- C++ -*----------------------------------*\
| =========                 |                                                 |
| \\      /  F ield         | OpenFOAM: The Open Source CFD Toolbox           |
|  \\    /   O peration     | Version:  3.0.x                                 |
|   \\  /    A nd           | Web:      www.OpenFOAM.org                      |
|    \\/     M anipulation  |                                                 |
|*---------------------------------------------------------------------------*|
|* OpenFOAM for Windows 16.10 (v1)                                           *|
|* Built by CFD Support, www.cfdsupport.com (based on Symscape).             *|
\*---------------------------------------------------------------------------*/
FoamFile
{
    version     2.0;
    format      ascii;
    class       volScalarField;
    location    "5";
    object      T;
}
// * * * * * * * * * * * * * * * * * * * * * * * * * * * * * * * * * * * * * //

dimensions      [0 0 0 1 0 0 0];

internalField   nonuniform List<scalar> 
6000
(
321.115
321.123
321.139
321.162
321.193
321.231
321.277
321.33
321.39
321.458
321.532
321.612
321.699
321.793
321.892
321.998
322.109
322.226
322.348
322.476
322.877
322.885
322.902
322.927
322.961
323.003
323.052
323.11
323.175
323.248
323.329
323.416
323.511
323.612
323.72
323.835
323.955
324.082
324.215
324.354
324.633
324.642
324.66
324.688
324.724
324.769
324.823
324.885
324.956
325.035
325.122
325.216
325.318
325.428
325.544
325.668
325.798
325.935
326.078
326.227
326.383
326.393
326.413
326.442
326.481
326.53
326.588
326.655
326.731
326.816
326.909
327.011
327.121
327.238
327.364
327.496
327.636
327.783
327.936
328.097
328.128
328.138
328.159
328.191
328.233
328.285
328.347
328.419
328.5
328.591
328.692
328.801
328.918
329.044
329.179
329.32
329.47
329.627
329.791
329.962
329.865
329.876
329.899
329.932
329.977
330.033
330.1
330.177
330.264
330.361
330.468
330.585
330.711
330.845
330.988
331.14
331.299
331.466
331.641
331.823
331.595
331.607
331.631
331.667
331.715
331.774
331.845
331.928
332.021
332.125
332.239
332.363
332.497
332.64
332.793
332.954
333.123
333.301
333.486
333.679
333.317
333.33
333.356
333.394
333.445
333.509
333.584
333.672
333.771
333.882
334.003
334.135
334.278
334.43
334.592
334.763
334.942
335.13
335.326
335.53
335.031
335.045
335.072
335.113
335.167
335.235
335.315
335.409
335.514
335.632
335.761
335.901
336.052
336.214
336.385
336.566
336.756
336.954
337.161
337.376
336.737
336.751
336.78
336.824
336.881
336.953
337.038
337.137
337.249
337.374
337.511
337.66
337.82
337.991
338.172
338.363
338.564
338.773
338.991
339.217
338.433
338.448
338.479
338.525
338.586
338.662
338.753
338.858
338.977
339.109
339.254
339.411
339.581
339.761
339.953
340.154
340.366
340.586
340.816
341.053
340.119
340.135
340.168
340.217
340.282
340.362
340.458
340.569
340.695
340.835
340.988
341.155
341.334
341.525
341.727
341.94
342.162
342.394
342.635
342.884
341.794
341.812
341.846
341.898
341.967
342.052
342.154
342.272
342.405
342.553
342.715
342.891
343.08
343.281
343.494
343.718
343.952
344.196
344.449
344.71
343.459
343.477
343.514
343.569
343.641
343.732
343.839
343.964
344.105
344.261
344.433
344.618
344.818
345.03
345.255
345.49
345.737
345.992
346.257
346.53
345.112
345.131
345.17
345.228
345.305
345.4
345.514
345.646
345.795
345.96
346.141
346.337
346.548
346.772
347.008
347.256
347.515
347.783
348.06
348.346
346.752
346.773
346.814
346.875
346.956
347.057
347.178
347.317
347.474
347.648
347.84
348.047
348.269
348.505
348.754
349.015
349.286
349.568
349.858
350.156
348.379
348.401
348.444
348.509
348.595
348.702
348.829
348.976
349.142
349.326
349.529
349.747
349.981
350.23
350.492
350.767
351.052
351.347
351.651
351.962
349.992
350.015
350.061
350.13
350.22
350.333
350.468
350.623
350.798
350.993
351.207
351.437
351.684
351.947
352.223
352.511
352.811
353.12
353.438
353.764
351.591
351.615
351.664
351.736
351.832
351.951
352.093
352.257
352.442
352.648
352.873
353.117
353.378
353.654
353.945
354.249
354.564
354.889
355.222
355.561
353.174
353.2
353.251
353.327
353.428
353.554
353.704
353.877
354.073
354.291
354.529
354.786
355.061
355.353
355.66
355.979
356.311
356.651
357
357.355
322.663
322.921
323.198
323.495
323.813
324.156
324.526
324.929
325.367
325.848
326.377
326.961
327.606
328.322
329.115
329.994
330.967
332.043
333.23
334.536
324.556
324.836
325.136
325.457
325.802
326.172
326.573
327.008
327.483
328.003
328.575
329.207
329.905
330.679
331.537
332.489
333.543
334.708
335.994
337.409
326.446
326.747
327.069
327.415
327.785
328.183
328.614
329.081
329.59
330.148
330.762
331.44
332.189
333.02
333.942
334.964
336.096
337.349
338.732
340.255
328.331
328.653
328.998
329.367
329.763
330.188
330.647
331.144
331.687
332.282
332.936
333.658
334.457
335.343
336.326
337.417
338.626
339.965
341.443
343.071
330.212
330.555
330.922
331.315
331.735
332.186
332.672
333.199
333.774
334.404
335.097
335.861
336.708
337.647
338.69
339.847
341.131
342.553
344.124
345.856
332.088
332.453
332.842
333.257
333.7
334.176
334.689
335.245
335.851
336.514
337.243
338.049
338.941
339.931
341.03
342.252
343.608
345.111
346.773
348.607
333.96
334.345
334.756
335.193
335.66
336.16
336.698
337.281
337.915
338.61
339.374
340.219
341.154
342.193
343.347
344.63
346.056
347.638
349.389
351.323
335.827
336.233
336.665
337.124
337.613
338.136
338.698
339.306
339.968
340.693
341.49
342.371
343.347
344.432
345.638
346.981
348.473
350.131
351.968
353.999
337.689
338.116
338.568
339.048
339.559
340.104
340.689
341.321
342.009
342.761
343.589
344.504
345.519
346.647
347.902
349.301
350.858
352.589
354.51
356.635
339.546
339.993
340.466
340.967
341.498
342.064
342.671
343.325
344.037
344.815
345.671
346.617
347.668
348.836
350.139
351.59
353.209
355.01
357.01
359.227
341.398
341.866
342.359
342.88
343.43
344.016
344.643
345.318
346.051
346.853
347.735
348.71
349.793
351
352.345
353.847
355.523
357.391
359.468
361.774
343.245
343.733
344.246
344.786
345.356
345.96
346.605
347.299
348.052
348.875
349.78
350.782
351.895
353.135
354.521
356.069
357.799
359.73
361.882
364.272
345.087
345.595
346.129
346.687
347.275
347.896
348.558
349.269
350.04
350.881
351.807
352.832
353.971
355.242
356.664
358.255
360.036
362.026
364.247
366.719
346.924
347.453
348.006
348.582
349.187
349.824
350.501
351.227
352.013
352.87
353.814
354.859
356.021
357.32
358.774
360.404
362.231
364.277
366.564
369.113
348.756
349.306
349.878
350.472
351.092
351.744
352.434
353.173
353.972
354.843
355.801
356.862
358.044
359.367
360.849
362.514
364.383
366.48
368.828
371.451
350.584
351.155
351.746
352.357
352.992
353.656
354.358
355.108
355.917
356.798
357.768
358.842
360.04
361.382
362.888
364.583
366.49
368.633
371.038
373.73
352.408
353
353.609
354.237
354.885
355.561
356.273
357.031
357.847
358.736
359.714
360.798
362.007
363.364
364.89
366.611
368.55
370.735
373.192
375.947
354.228
354.842
355.47
356.112
356.773
357.459
358.178
358.942
359.763
360.656
361.639
362.728
363.946
365.313
366.854
368.595
370.562
372.783
375.287
378.101
356.045
356.68
357.327
357.984
358.657
359.35
360.075
360.842
361.665
362.559
363.542
364.634
365.854
367.227
368.778
370.534
372.523
374.776
377.321
380.188
357.859
358.517
359.182
359.853
360.536
361.235
361.963
362.73
363.552
364.444
365.425
366.513
367.733
369.107
370.662
372.427
374.433
376.71
379.291
382.206
335.73
336.743
337.815
338.949
340.144
341.401
342.72
344.098
345.535
347.025
348.566
350.15
351.769
353.414
355.073
356.732
358.378
359.994
361.565
363.077
338.702
339.8
340.963
342.192
343.489
344.853
346.284
347.78
349.34
350.96
352.634
354.357
356.118
357.908
359.715
361.522
363.315
365.077
366.789
368.436
341.647
342.829
344.082
345.406
346.804
348.274
349.818
351.434
353.119
354.87
356.681
358.546
360.454
362.396
364.356
366.319
368.267
370.181
372.042
373.83
344.561
345.827
347.168
348.587
350.086
351.664
353.321
355.057
356.869
358.753
360.704
362.715
364.776
366.875
368.996
371.122
373.234
375.309
377.327
379.264
347.442
348.79
350.22
351.734
353.333
355.018
356.789
358.646
360.586
362.606
364.701
366.863
369.081
371.343
373.633
375.932
378.217
380.464
382.647
384.742
350.288
351.718
353.235
354.842
356.541
358.333
360.219
362.198
364.268
366.427
368.668
370.985
373.366
375.8
378.267
380.748
383.217
385.646
388.006
390.268
353.096
354.606
356.209
357.909
359.708
361.607
363.608
365.71
367.911
370.21
372.602
375.078
377.629
380.241
382.895
385.569
388.234
390.859
393.409
395.85
355.864
357.453
359.141
360.933
362.831
364.836
366.951
369.177
371.511
373.953
376.497
379.138
381.865
384.663
387.514
390.394
393.269
396.106
398.861
401.495
358.589
360.255
362.027
363.909
365.905
368.017
370.246
372.595
375.063
377.649
380.35
383.16
386.068
389.062
392.121
395.22
398.323
401.388
404.368
407.211
361.268
363.01
364.864
366.836
368.928
371.145
373.488
375.96
378.563
381.295
384.155
387.137
390.234
393.432
396.711
400.044
403.392
406.708
409.934
413.008
363.899
365.714
367.649
369.708
371.896
374.216
376.672
379.268
382.005
384.884
387.905
391.064
394.355
397.765
401.277
404.861
408.476
412.069
415.569
418.9
366.479
368.365
370.379
372.523
374.805
377.227
379.795
382.513
385.384
388.41
391.593
394.932
398.422
402.054
405.811
409.664
413.571
417.47
421.279
424.901
369.005
370.961
373.05
375.278
377.651
380.173
382.851
385.69
388.693
391.866
395.213
398.733
402.427
406.288
410.302
414.443
418.668
422.911
427.073
431.03
371.474
373.497
375.659
377.969
380.43
383.051
385.836
388.793
391.927
395.246
398.754
402.457
406.358
410.453
414.736
419.184
423.759
428.387
432.957
437.31
373.883
375.97
378.204
380.591
383.139
385.855
388.745
391.817
395.08
398.541
402.21
406.094
410.201
414.535
419.096
423.87
428.825
433.89
438.938
443.768
376.231
378.378
380.68
383.143
385.774
388.581
391.572
394.757
398.144
401.744
405.569
409.632
413.944
418.517
423.361
428.476
433.842
439.4
445.016
450.439
378.513
380.718
383.085
385.619
388.33
391.225
394.314
397.606
401.113
404.847
408.824
413.058
417.57
422.379
427.506
432.97
438.773
444.884
451.181
457.363
380.727
382.987
385.414
388.018
390.804
393.784
396.965
400.36
403.981
407.843
411.963
416.361
421.064
426.099
431.502
437.313
443.569
450.286
457.396
464.585
382.87
385.181
387.666
390.334
393.193
396.252
399.522
403.014
406.743
410.724
414.978
419.53
424.409
429.655
435.317
441.458
448.159
455.512
463.576
472.142
384.939
387.298
389.837
392.566
395.493
398.627
401.979
405.563
409.392
413.484
417.862
422.553
427.592
433.027
438.919
445.354
452.459
460.423
469.532
480.035
364.996
367.156
369.057
370.71
372.146
373.418
374.587
375.722
376.901
378.212
379.758
381.67
384.116
387.323
391.615
397.474
405.664
417.506
435.61
466.443
370.526
372.874
374.937
376.727
378.279
379.651
380.909
382.13
383.396
384.804
386.464
388.514
391.135
394.569
399.157
405.406
414.103
426.572
445.255
475.117
376.097
378.638
380.862
382.782
384.441
385.901
387.237
388.53
389.869
391.355
393.106
395.267
398.024
401.63
406.434
412.946
421.938
434.643
453.111
480.606
381.716
384.453
386.834
388.878
390.634
392.172
393.572
394.923
396.319
397.865
399.683
401.924
404.778
408.499
413.438
420.089
429.178
441.792
459.523
484.288
387.388
390.324
392.861
395.021
396.863
398.464
399.915
401.308
402.744
404.33
406.193
408.483
411.393
415.174
420.167
426.842
435.855
448.122
464.81
486.906
393.118
396.259
398.948
401.215
403.129
404.781
406.267
407.687
409.145
410.752
412.634
414.943
417.868
421.655
426.628
433.22
442.012
453.744
469.232
488.868
398.916
402.267
405.103
407.465
409.438
411.124
412.63
414.06
415.523
417.129
419.007
421.304
424.206
427.946
432.829
439.247
447.698
458.766
472.989
490.41
404.792
408.357
411.333
413.778
415.793
417.496
419.004
420.428
421.877
423.464
425.312
427.568
430.409
434.055
438.785
444.949
452.965
463.283
476.236
491.67
410.756
414.541
417.649
420.159
422.197
423.9
425.393
426.792
428.209
429.756
431.553
433.739
436.483
439.99
444.511
450.354
457.864
467.378
479.085
492.733
416.824
420.834
424.06
426.615
428.656
430.337
431.796
433.153
434.521
436.008
437.731
439.821
442.436
445.762
450.026
455.492
462.442
471.123
481.623
493.656
423.013
427.251
430.579
433.154
435.172
436.809
438.215
439.513
440.814
442.222
443.85
445.819
448.274
451.384
455.349
460.393
466.743
474.577
483.916
494.473
429.347
433.814
437.219
439.782
441.748
443.318
444.651
445.872
447.089
448.402
449.914
451.739
454.008
456.87
460.499
465.085
470.807
477.79
486.015
495.21
435.855
440.548
443.993
446.506
448.388
449.866
451.105
452.232
453.349
454.549
455.929
457.589
459.646
462.232
465.497
469.595
474.67
480.804
487.957
495.886
442.578
447.481
450.916
453.331
455.093
456.451
457.578
458.593
459.595
460.668
461.898
463.375
465.2
467.487
470.361
473.949
478.362
483.655
489.776
496.514
449.57
454.648
458.002
460.26
461.861
463.074
464.068
464.957
465.83
466.762
467.828
469.105
470.68
472.647
475.11
478.171
481.914
486.374
491.497
497.105
456.909
462.092
465.263
467.295
468.693
469.732
470.575
471.323
472.055
472.835
473.724
474.788
476.097
477.728
479.764
482.284
485.351
488.986
493.139
497.667
464.713
469.858
472.707
474.431
475.581
476.422
477.096
477.692
478.273
478.89
479.592
480.432
481.462
482.744
484.34
486.31
488.697
491.515
494.722
498.207
473.164
477.991
480.331
481.659
482.519
483.138
483.631
484.064
484.485
484.931
485.439
486.045
486.788
487.71
488.857
490.268
491.975
493.983
496.261
498.73
482.559
486.521
488.117
488.962
489.495
489.874
490.174
490.437
490.692
490.963
491.27
491.636
492.084
492.64
493.331
494.18
495.204
496.406
497.768
499.242
493.403
495.431
496.023
496.315
496.495
496.623
496.724
496.812
496.898
496.988
497.091
497.213
497.363
497.549
497.78
498.063
498.404
498.805
499.258
499.748
354.741
354.768
354.822
354.902
355.009
355.142
355.3
355.483
355.69
355.92
356.171
356.443
356.734
357.042
357.366
357.703
358.051
358.409
358.775
359.146
356.29
356.319
356.376
356.461
356.573
356.714
356.881
357.074
357.292
357.535
357.801
358.088
358.396
358.721
359.063
359.418
359.786
360.162
360.546
360.934
357.822
357.852
357.912
358.001
358.12
358.268
358.444
358.648
358.879
359.136
359.417
359.721
360.046
360.39
360.751
361.127
361.514
361.911
362.314
362.721
359.334
359.365
359.428
359.523
359.648
359.804
359.99
360.206
360.45
360.721
361.018
361.339
361.683
362.048
362.43
362.827
363.237
363.655
364.079
364.506
360.826
360.859
360.925
361.025
361.157
361.321
361.518
361.745
362.003
362.289
362.603
362.944
363.308
363.694
364.099
364.52
364.954
365.396
365.843
366.292
362.296
362.331
362.401
362.506
362.645
362.818
363.025
363.265
363.537
363.84
364.172
364.533
364.919
365.329
365.759
366.205
366.665
367.133
367.606
368.079
363.744
363.781
363.854
363.964
364.111
364.293
364.511
364.764
365.051
365.371
365.723
366.105
366.515
366.95
367.407
367.882
368.371
368.868
369.369
369.868
365.169
365.207
365.285
365.4
365.554
365.746
365.975
366.241
366.544
366.883
367.255
367.66
368.095
368.558
369.044
369.55
370.071
370.6
371.133
371.662
366.569
366.609
366.69
366.811
366.972
367.174
367.415
367.696
368.015
368.372
368.766
369.195
369.658
370.15
370.668
371.209
371.765
372.331
372.899
373.461
367.943
367.985
368.07
368.196
368.366
368.577
368.83
369.125
369.461
369.838
370.255
370.71
371.201
371.725
372.279
372.857
373.454
374.06
374.669
375.269
369.29
369.334
369.422
369.555
369.732
369.953
370.218
370.528
370.881
371.279
371.719
372.201
372.723
373.281
373.874
374.494
375.135
375.789
376.444
377.088
370.609
370.655
370.747
370.885
371.069
371.3
371.578
371.902
372.274
372.692
373.156
373.666
374.221
374.817
375.45
376.117
376.809
377.516
378.225
378.922
371.898
371.946
372.041
372.185
372.377
372.618
372.908
373.247
373.636
374.075
374.565
375.104
375.692
376.327
377.006
377.724
378.473
379.242
380.015
380.774
373.157
373.206
373.305
373.455
373.654
373.904
374.206
374.56
374.966
375.427
375.941
376.51
377.133
377.81
378.537
379.312
380.125
380.965
381.814
382.648
374.384
374.435
374.538
374.692
374.898
375.158
375.471
375.839
376.262
376.743
377.283
377.881
378.54
379.26
380.039
380.874
381.759
382.682
383.623
384.552
375.578
375.631
375.737
375.896
376.109
376.376
376.7
377.082
377.522
378.023
378.586
379.214
379.909
380.672
381.504
382.404
383.369
384.387
385.44
386.49
376.739
376.793
376.901
377.065
377.284
377.56
377.893
378.287
378.742
379.262
379.848
380.504
381.234
382.04
382.926
383.894
384.944
386.071
387.259
388.467
377.865
377.92
378.031
378.198
378.423
378.706
379.048
379.453
379.922
380.458
381.065
381.748
382.509
383.356
384.295
385.33
386.47
387.716
389.064
390.484
378.955
379.012
379.125
379.295
379.524
379.813
380.163
380.578
381.058
381.609
382.235
382.94
383.731
384.615
385.601
386.701
387.927
389.296
390.824
392.52
380.01
380.067
380.182
380.355
380.588
380.881
381.238
381.66
382.15
382.713
383.353
384.077
384.892
385.807
386.835
387.99
389.294
390.774
392.476
394.488
359.671
360.352
361.036
361.72
362.411
363.115
363.843
364.609
365.426
366.312
367.286
368.368
369.581
370.95
372.505
374.273
376.289
378.585
381.195
384.152
361.482
362.187
362.889
363.586
364.284
364.99
365.716
366.476
367.286
368.162
369.125
370.196
371.398
372.758
374.305
376.07
378.089
380.397
383.03
386.023
363.292
364.023
364.743
365.452
366.155
366.861
367.583
368.334
369.133
369.996
370.943
371.998
373.184
374.528
376.061
377.817
379.833
382.145
384.794
387.817
365.104
365.861
366.6
367.319
368.026
368.729
369.443
370.183
370.967
371.812
372.741
373.774
374.938
376.261
377.774
379.513
381.517
383.827
386.485
389.53
366.917
367.703
368.46
369.189
369.897
370.595
371.298
372.023
372.788
373.613
374.517
375.525
376.661
377.956
379.442
381.157
383.141
385.44
388.099
391.16
368.735
369.55
370.326
371.063
371.77
372.46
373.149
373.856
374.599
375.397
376.273
377.25
378.353
379.614
381.065
382.747
384.703
386.982
389.633
392.703
370.558
371.404
372.199
372.943
373.646
374.325
374.997
375.681
376.398
377.167
378.009
378.95
380.014
381.233
382.643
384.283
386.202
388.451
391.085
394.155
372.389
373.269
374.082
374.831
375.527
376.191
376.842
377.5
378.186
378.921
379.726
380.625
381.645
382.816
384.174
385.764
387.635
389.844
392.451
395.513
374.23
375.148
375.979
376.729
377.415
378.06
378.685
379.313
379.965
380.662
381.425
382.277
383.245
384.361
385.661
387.19
389.001
391.158
393.726
396.772
376.086
377.043
377.891
378.639
379.311
379.932
380.528
381.122
381.736
382.39
383.105
383.906
384.817
385.869
387.101
388.559
390.299
392.39
394.908
397.927
377.96
378.96
379.823
380.565
381.217
381.809
382.371
382.927
383.498
384.105
384.769
385.512
386.36
387.343
388.498
389.873
391.528
393.538
395.99
398.972
379.857
380.904
381.779
382.509
383.134
383.693
384.216
384.729
385.253
385.81
386.418
387.098
387.877
388.782
389.851
391.132
392.687
394.599
396.968
399.899
381.785
382.882
383.763
384.473
385.065
385.584
386.062
386.528
387.002
387.504
388.052
388.665
389.368
390.188
391.162
392.336
393.776
395.57
397.834
400.699
383.754
384.902
385.781
386.461
387.011
387.482
387.912
388.326
388.746
389.189
389.672
390.215
390.837
391.565
392.433
393.488
394.794
396.448
398.582
401.36
385.776
386.976
387.839
388.475
388.972
389.389
389.764
390.123
390.485
390.866
391.282
391.748
392.285
392.914
393.668
394.589
395.745
397.232
399.202
401.867
387.872
389.117
389.942
390.515
390.948
391.304
391.619
391.919
392.22
392.536
392.881
393.268
393.714
394.238
394.869
395.645
396.629
397.919
399.685
402.196
390.073
391.34
392.094
392.584
392.94
393.226
393.478
393.714
393.952
394.201
394.472
394.776
395.127
395.541
396.041
396.66
397.453
398.513
400.021
402.317
392.432
393.665
394.298
394.679
394.946
395.156
395.339
395.51
395.681
395.861
396.056
396.276
396.529
396.828
397.19
397.641
398.224
399.019
400.201
402.183
395.042
396.109
396.552
396.797
396.963
397.091
397.202
397.306
397.409
397.518
397.636
397.768
397.921
398.102
398.321
398.595
398.953
399.449
400.222
401.718
398.082
398.675
398.845
398.93
398.987
399.03
399.067
399.102
399.137
399.173
399.212
399.256
399.308
399.368
399.442
399.534
399.654
399.823
400.102
400.797
386.932
389.334
391.924
394.71
397.7
400.905
404.334
408.002
411.923
416.117
420.606
425.421
430.6
436.196
442.279
448.953
456.377
464.826
474.868
488.139
388.845
391.287
393.924
396.762
399.812
403.082
406.584
410.329
414.334
418.618
423.205
428.126
433.422
439.147
445.377
452.219
459.84
468.52
478.77
491.598
390.675
393.154
395.833
398.721
401.826
405.157
408.724
412.541
416.621
420.985
425.656
430.666
436.054
441.875
448.202
455.137
462.833
471.515
481.527
493.29
392.42
394.932
397.65
400.584
403.74
407.127
410.755
414.635
418.782
423.215
427.956
433.036
438.493
444.378
450.756
457.719
465.387
473.92
483.506
494.244
394.077
396.617
399.372
402.347
405.551
408.99
412.673
416.61
420.816
425.308
430.106
435.24
440.743
446.661
453.052
459.987
467.556
475.858
484.972
494.855
395.642
398.208
400.995
404.01
407.257
410.744
414.477
418.466
422.724
427.264
432.107
437.278
442.808
448.735
455.105
461.973
469.399
477.435
486.095
495.285
397.112
399.7
402.517
405.569
408.858
412.389
416.168
420.204
424.505
429.085
433.963
439.158
444.697
450.611
456.936
463.711
470.971
478.736
486.983
495.61
398.482
401.09
403.936
407.022
410.35
413.924
417.746
421.823
426.162
430.775
435.677
440.884
446.419
452.305
458.568
465.233
472.318
479.821
487.703
495.865
399.75
402.375
405.247
408.367
411.734
415.348
419.21
423.325
427.697
432.337
437.255
442.466
447.985
453.831
460.021
466.569
473.48
480.738
488.299
496.073
400.909
403.55
406.449
409.602
413.008
416.661
420.562
424.712
429.114
433.775
438.703
443.909
449.406
455.204
461.315
467.744
474.486
481.52
488.8
496.247
401.954
404.61
407.537
410.726
414.171
417.865
421.804
425.987
430.416
435.094
440.028
445.224
450.692
456.438
462.468
468.78
475.363
482.194
489.226
496.393
402.878
405.551
408.508
411.736
415.223
418.96
422.937
427.153
431.607
436.3
441.235
446.419
451.855
457.547
463.495
469.695
476.131
482.777
489.593
496.518
403.673
406.366
409.358
412.631
416.165
419.947
423.965
428.214
432.691
437.397
442.333
447.501
452.904
458.541
464.411
470.504
476.805
483.286
489.91
496.626
404.329
407.048
410.084
413.41
416.998
420.829
424.89
429.173
433.674
438.392
443.327
448.479
453.848
459.433
465.227
471.221
477.398
483.732
490.187
496.72
404.833
407.587
410.682
414.072
417.722
421.609
425.716
430.035
434.561
439.291
444.225
449.361
454.697
460.231
465.955
471.858
477.922
484.123
490.429
496.802
405.167
407.976
411.148
414.618
418.341
422.29
426.448
430.805
435.357
440.1
445.032
450.153
455.459
460.945
466.603
472.422
478.384
484.467
490.642
496.874
405.31
408.204
411.481
415.051
418.86
422.879
427.092
431.489
436.068
440.824
445.757
450.863
456.14
461.582
467.18
472.923
478.793
484.771
490.829
496.937
405.229
408.262
411.685
415.378
419.286
423.382
427.653
432.093
436.699
441.47
446.404
451.497
456.748
462.149
467.693
473.367
479.155
485.039
490.994
496.993
404.885
408.146
411.767
415.61
419.629
423.807
428.139
432.623
437.258
442.044
446.979
452.062
457.289
462.653
468.147
473.759
479.475
485.275
491.139
497.042
404.217
407.871
411.752
415.764
419.9
424.163
428.557
433.085
437.749
442.551
447.489
452.563
457.768
463.1
468.55
474.106
479.756
485.483
491.266
497.085
402.871
407.401
411.659
415.888
420.169
424.536
429.006
433.588
438.288
443.109
448.052
453.116
458.298
463.593
468.993
474.488
480.066
485.711
491.406
497.132
402.468
407.11
411.576
415.984
420.406
424.881
429.432
434.073
438.812
443.656
448.606
453.661
458.821
464.079
469.43
474.864
480.37
485.935
491.543
497.178
402.358
406.995
411.55
416.067
420.59
425.149
429.767
434.459
439.233
444.097
449.054
454.103
459.244
464.473
469.783
475.168
480.616
486.116
491.654
497.215
402.329
406.962
411.562
416.145
420.737
425.359
430.03
434.762
439.565
444.446
449.408
454.453
459.58
464.785
470.063
475.408
480.81
486.258
491.741
497.245
402.323
406.962
411.59
416.216
420.854
425.521
430.23
434.993
439.819
444.713
449.68
454.722
459.837
465.023
470.277
475.591
480.957
486.366
491.807
497.267
402.324
406.972
411.619
416.273
420.943
425.641
430.377
435.163
440.004
444.908
449.878
454.916
460.023
465.195
470.43
475.721
481.062
486.443
491.853
497.282
402.327
406.983
411.643
416.314
421.004
425.721
430.476
435.275
440.127
445.037
450.008
455.043
460.142
465.304
470.526
475.802
481.126
486.489
491.881
497.292
402.329
406.989
411.656
416.336
421.036
425.765
430.529
435.336
440.193
445.104
450.074
455.106
460.199
465.354
470.568
475.835
481.151
486.507
491.892
497.295
402.329
406.988
411.656
416.338
421.041
425.772
430.539
435.347
440.203
445.112
450.079
455.106
460.195
465.345
470.555
475.821
481.137
486.494
491.883
497.292
402.325
406.979
411.642
416.319
421.018
425.745
430.507
435.31
440.16
445.063
450.024
455.045
460.129
465.276
470.487
475.757
481.081
486.45
491.855
497.283
402.32
406.962
411.613
416.279
420.967
425.683
430.434
435.226
440.065
444.957
449.908
454.92
459.999
465.145
470.359
475.638
480.978
486.371
491.805
497.265
402.311
406.935
411.568
416.217
420.887
425.586
430.319
435.094
439.917
444.793
449.729
454.73
459.802
464.946
470.165
475.459
480.824
486.251
491.729
497.239
402.299
406.899
411.508
416.133
420.78
425.454
430.164
434.915
439.714
444.569
449.485
454.471
459.531
464.672
469.897
475.209
480.606
486.081
491.62
497.201
402.284
406.854
411.433
416.028
420.644
425.288
429.967
434.687
439.457
444.283
449.173
454.136
459.18
464.313
469.543
474.874
480.31
485.846
491.467
497.149
402.266
406.8
411.343
415.901
420.48
425.087
429.728
434.411
439.143
443.932
448.788
453.72
458.74
463.858
469.086
474.435
479.915
485.526
491.256
497.074
402.245
406.737
411.238
415.753
420.289
424.851
429.448
434.085
438.771
443.515
448.327
453.218
458.201
463.292
468.507
473.867
479.388
485.086
490.956
496.966
402.221
406.665
411.118
415.584
420.07
424.582
429.126
433.71
438.342
443.03
447.786
452.623
457.555
462.601
467.785
473.136
478.686
484.472
490.517
496.799
402.194
406.585
410.984
415.396
419.826
424.28
428.765
433.288
437.855
442.478
447.166
451.932
456.794
461.773
466.897
472.205
477.749
483.6
489.839
496.513
402.165
406.498
410.838
415.189
419.558
423.948
428.367
432.82
437.315
441.86
446.466
451.146
455.917
460.799
465.825
471.037
476.506
482.341
488.726
495.927
402.134
406.404
410.679
414.966
419.267
423.588
427.934
432.31
436.723
441.181
445.693
450.27
454.927
459.683
464.565
469.614
474.895
480.532
486.795
494.399
402.089
406.269
410.455
414.648
418.854
423.075
427.316
431.581
435.875
440.204
444.575
448.996
453.475
458.026
462.663
467.405
472.274
477.287
482.432
487.562
402.029
406.088
410.15
414.218
418.293
422.378
426.476
430.588
434.718
438.868
443.04
447.238
451.462
455.715
459.995
464.294
468.596
472.864
477.022
480.923
401.966
405.897
409.83
413.766
417.705
421.648
425.595
429.548
433.506
437.468
441.436
445.404
449.372
453.33
457.27
461.174
465.014
468.75
472.321
475.646
401.901
405.703
409.504
413.305
417.105
420.904
424.7
428.492
432.279
436.058
439.825
443.576
447.304
450.998
454.646
458.229
461.722
465.094
468.305
471.311
401.837
405.509
409.18
412.847
416.51
420.167
423.815
427.452
431.074
434.679
438.261
441.813
445.328
448.796
452.203
455.533
458.768
461.884
464.857
467.663
401.774
405.321
408.864
412.402
415.933
419.453
422.96
426.45
429.92
433.365
436.778
440.154
443.485
446.762
449.972
453.103
456.142
459.072
461.877
464.542
401.714
405.141
408.563
411.979
415.384
418.777
422.152
425.506
428.836
432.135
435.399
438.621
441.794
444.91
447.959
450.932
453.818
456.606
459.285
461.845
401.658
404.973
408.282
411.584
414.873
418.147
421.401
424.632
427.835
431.005
434.137
437.225
440.263
443.243
446.159
449.003
451.767
454.442
457.022
459.5
401.607
404.819
408.025
411.221
414.405
417.571
420.716
423.835
426.925
429.98
432.996
435.968
438.889
441.755
444.56
447.297
449.96
452.544
455.043
457.453
401.561
404.68
407.793
410.896
413.984
417.054
420.101
423.121
426.111
429.065
431.979
434.849
437.671
440.439
443.148
445.795
448.374
450.881
453.313
455.665
401.52
404.559
407.59
410.61
413.615
416.6
419.561
422.494
425.395
428.26
431.085
433.867
436.601
439.284
441.911
444.48
446.987
449.429
451.802
454.105
401.486
404.456
407.418
410.368
413.301
416.213
419.098
421.955
424.778
427.565
430.312
433.016
435.673
438.282
440.838
443.339
445.782
448.166
450.487
452.745
401.459
404.374
407.281
410.173
413.046
415.896
418.718
421.508
424.264
426.982
429.659
432.294
434.883
437.425
439.917
442.357
444.744
447.075
449.35
451.567
401.44
404.317
407.183
410.031
412.858
415.657
418.425
421.158
423.854
426.51
429.125
431.697
434.225
436.706
439.139
441.524
443.858
446.142
448.373
450.552
401.431
404.288
407.131
409.953
412.745
415.505
418.227
420.911
423.553
426.154
428.712
431.225
433.695
436.119
438.498
440.83
443.115
445.353
447.543
449.685
401.436
404.299
407.142
409.953
412.725
415.454
418.139
420.777
423.37
425.917
428.419
430.877
433.29
435.66
437.985
440.267
442.504
444.698
446.847
448.953
401.461
404.369
407.24
410.06
412.824
415.529
418.177
420.771
423.312
425.805
428.251
430.651
433.008
435.322
437.594
439.826
442.016
444.165
446.275
448.344
401.526
404.541
407.479
410.326
413.084
415.762
418.367
420.908
423.392
425.824
428.207
430.547
432.844
435.101
437.318
439.498
441.64
443.745
445.814
447.846
401.695
404.93
407.969
410.837
413.57
416.196
418.736
421.206
423.616
425.975
428.288
430.559
432.792
434.988
437.148
439.274
441.367
443.427
445.454
447.449
402.298
405.863
408.931
411.726
414.353
416.868
419.3
421.668
423.983
426.254
428.485
430.68
432.842
434.973
437.073
439.144
441.185
443.199
445.184
447.141
493.486
495.877
496.914
497.499
497.894
498.19
498.427
498.624
498.793
498.942
499.076
499.197
499.309
499.414
499.513
499.607
499.698
499.786
499.872
499.958
485.471
488.984
491.192
492.688
493.781
494.63
495.319
495.899
496.4
496.842
497.239
497.601
497.936
498.248
498.543
498.825
499.096
499.36
499.618
499.873
479.627
483.397
486.183
488.281
489.913
491.229
492.321
493.253
494.066
494.787
495.438
496.033
496.584
497.1
497.588
498.054
498.503
498.939
499.367
499.79
474.99
478.794
481.862