/*--------------------------------*- C++ -*----------------------------------*\
| =========                 |                                                 |
| \\      /  F ield         | OpenFOAM: The Open Source CFD Toolbox           |
|  \\    /   O peration     | Version:  v1606+                                |
|   \\  /    A nd           | Web:      www.OpenFOAM.com                      |
|    \\/     M anipulation  |                                                 |
\*---------------------------------------------------------------------------*/
FoamFile
{
    version     2.0;
    format      ascii;
    class       volScalarField;
    location    "0.1/unShaded";
    object      T;
}
// * * * * * * * * * * * * * * * * * * * * * * * * * * * * * * * * * * * * * //

dimensions      [0 0 0 1 0 0 0];

internalField   nonuniform List<scalar> 
24480
(
374.10698
375.8965
377.44375
378.83007
380.09802
381.27286
382.37112
383.40435
384.38112
385.30798
386.1901
387.03169
387.83623
388.60664
389.34539
390.05464
390.73624
391.39182
392.02285
392.6306
393.21623
393.78079
394.32521
394.85036
395.35701
395.8459
396.31767
396.77293
397.21226
397.63618
398.04517
398.43968
398.82015
399.18696
399.5405
399.88111
400.20912
400.52484
400.82858
401.1206
401.40117
401.67053
401.92894
402.1766
402.41375
402.64057
402.85727
403.06404
403.26104
403.44845
403.62645
403.79517
403.95477
404.1054
404.24719
404.38028
404.5048
404.62086
404.72859
404.82811
404.91952
405.00293
405.07845
405.14618
405.2062
405.25862
405.30354
405.34102
405.37117
405.39407
405.4098
405.41843
405.42004
405.41471
405.40251
405.38352
405.35779
405.32541
405.28643
405.24092
405.18895
405.13057
405.06584
404.99484
404.9176
404.8342
404.74468
404.64911
404.54753
404.44
404.32658
404.2073
404.08223
403.95141
403.8149
403.67274
403.52497
403.37165
403.21283
403.04854
402.87883
402.70375
402.52334
402.33765
402.14671
401.95058
401.74929
401.54288
401.3314
401.11488
400.89337
400.6669
400.43552
400.19927
399.95817
399.71228
399.46162
399.20624
398.94617
398.68145
398.41211
398.13819
397.85972
397.57674
397.28928
396.99738
396.70107
396.40038
396.09534
395.78598
395.47234
395.15444
394.83232
394.50601
394.17552
393.8409
393.50216
393.15934
392.81246
392.46155
392.10663
391.74772
391.38485
391.01803
390.6473
390.27268
389.89417
389.5118
389.1256
388.73557
388.34173
387.94411
387.5427
387.13753
386.72861
386.31596
385.89957
385.47947
385.05565
384.62813
384.19692
383.76201
383.32342
382.88114
382.43518
381.98553
381.5322
381.07519
373.86473
375.47212
376.93801
378.28178
379.52446
380.68278
381.76946
382.79416
383.76437
384.68604
385.56396
386.40208
387.2037
387.97162
388.70824
389.41562
390.09558
390.74972
391.37945
391.98605
392.57064
393.13425
393.67782
394.20218
394.70812
395.19634
395.6675
396.12221
396.56101
396.98444
397.39297
397.78706
398.16713
398.53357
398.88676
399.22704
399.55474
399.87017
400.17363
400.46538
400.7457
401.01483
401.27301
401.52046
401.7574
401.98403
402.20054
402.40713
402.60396
402.79121
402.96905
403.13762
403.29708
403.44757
403.58923
403.72219
403.84658
403.96253
404.07014
404.16955
404.26085
404.34416
404.41958
404.48721
404.54714
404.59947
404.64429
404.68169
404.71176
404.73458
404.75022
404.75878
404.76031
404.75491
404.74264
404.72358
404.69779
404.66534
404.62629
404.58072
404.52869
404.47024
404.40546
404.3344
404.2571
404.17364
404.08407
403.98845
403.88681
403.77923
403.66576
403.54643
403.42131
403.29045
403.15388
403.01167
402.86386
402.71049
402.55162
402.38729
402.21753
402.04241
401.86196
401.67622
401.48525
401.28907
401.08774
400.88129
400.66976
400.45321
400.23166
400.00515
399.77373
399.53744
399.29631
399.05038
398.79968
398.54426
398.28416
398.0194
397.75002
397.47607
397.19757
396.91455
396.62706
396.33513
396.03878
395.73806
395.43298
395.1236
394.80993
394.492
394.16985
393.84351
393.51299
393.17834
392.83958
392.49674
392.14983
391.79889
391.44395
391.08501
390.72212
390.35529
389.98453
389.60989
389.23136
388.84898
388.46275
388.07271
387.67886
387.28122
386.8798
386.47462
386.06569
385.65302
385.23662
384.81651
384.39269
383.96516
383.53394
383.09903
382.66043
382.21815
381.77219
381.32255
380.86922
380.41221
373.74456
375.18924
376.55438
377.83459
379.03524
380.16435
381.22979
382.23845
383.19617
384.10785
384.97762
385.80897
386.60488
387.36792
388.10031
388.80402
389.48075
390.13202
390.7592
391.3635
391.94603
392.50777
393.04963
393.57243
394.07694
394.56385
395.0338
395.48738
395.92514
396.34759
396.75522
397.14847
397.52774
397.89344
398.24593
398.58555
398.91263
399.22747
399.53037
399.8216
400.10142
400.37008
400.62781
400.87483
401.11136
401.3376
401.55374
401.75997
401.95646
402.14339
402.32091
402.48918
402.64835
402.79857
402.93996
403.07266
403.19681
403.31252
403.41991
403.51909
403.61018
403.69328
403.7685
403.83593
403.89567
403.94782
403.99247
404.0297
404.0596
404.08225
404.09774
404.10614
404.10753
404.10198
404.08957
404.07037
404.04444
404.01186
403.97269
403.92699
403.87483
403.81626
403.75136
403.68018
403.60277
403.5192
403.42952
403.33379
403.23205
403.12436
403.01078
402.89136
402.76614
402.63517
402.49851
402.35621
402.2083
402.05484
401.89588
401.73145
401.56161
401.3864
401.20586
401.02004
400.82898
400.63272
400.4313
400.22477
400.01317
399.79653
399.5749
399.34832
399.11682
398.88045
398.63924
398.39323
398.14247
397.88697
397.62679
397.36196
397.09252
396.81849
396.53992
396.25684
395.96928
395.67728
395.38087
395.08008
394.77495
394.4655
394.15177
393.83378
393.51158
393.18517
392.85461
392.5199
392.18109
391.83819
391.49123
391.14024
390.78525
390.42627
390.06333
389.69646
389.32566
388.95098
388.57241
388.18999
387.80373
387.41366
387.01977
386.6221
386.22066
385.81545
385.4065
384.99381
384.57739
384.15726
383.73343
383.30589
382.87466
382.43974
382.00114
381.55885
381.11289
380.66325
380.20992
379.75292
373.66885
374.98588
376.25568
377.46697
378.61756
379.7096
380.7469
381.73368
382.674
383.57157
384.4297
385.25129
386.03892
386.79485
387.52108
388.21939
388.89137
389.53842
390.16183
390.76274
391.3422
391.90116
392.44049
392.96098
393.46337
393.94832
394.41646
394.86836
395.30457
395.72558
396.13186
396.52384
396.90193
397.26652
397.61796
397.9566
398.28275
398.59672
398.89879
399.18923
399.46831
399.73626
399.99331
400.23969
400.47561
400.70127
400.91685
401.12255
401.31853
401.50497
401.68203
401.84985
402.00859
402.15839
402.29938
402.4317
402.55548
402.67083
402.77787
402.87673
402.96749
403.05029
403.1252
403.19234
403.25181
403.30368
403.34806
403.38504
403.41469
403.4371
403.45235
403.46052
403.46168
403.45592
403.44329
403.42388
403.39775
403.36497
403.3256
403.27971
403.22737
403.16862
403.10354
403.03219
402.95461
402.87087
402.78103
402.68513
402.58323
402.47539
402.36165
402.24208
402.11671
401.9856
401.84879
401.70634
401.5583
401.4047
401.2456
401.08104
400.91106
400.73572
400.55505
400.3691
400.17791
399.98152
399.77998
399.57333
399.3616
399.14484
398.92309
398.69639
398.46478
398.22829
397.98697
397.74085
397.48997
397.23437
396.97408
396.70915
396.43959
396.16546
395.88679
395.60361
395.31595
395.02385
394.72734
394.42646
394.12123
393.81169
393.49786
393.17979
392.85749
392.53101
392.20035
391.86557
391.52667
391.1837
390.83666
390.4856
390.13054
389.77149
389.40848
389.04154
388.67069
388.29594
387.91732
387.53484
387.14853
386.75841
386.36448
385.96676
385.56528
385.16003
384.75104
384.33832
383.92188
383.50172
383.07786
382.65031
382.21906
381.78413
381.34552
380.90323
380.45727
380.00762
379.55431
379.09731
373.61381
374.82975
376.0155
377.16004
378.25843
379.30958
380.31453
381.27537
382.19459
383.07474
383.9183
384.72757
385.50466
386.25148
386.96977
387.66111
388.32691
388.96846
389.58694
390.18342
390.75887
391.31419
391.85019
392.36764
392.86722
393.3496
393.81535
394.26505
394.6992
395.1183
395.52279
395.9131
396.28962
396.65274
397.0028
397.34013
397.66506
397.97786
398.27883
398.56824
398.84632
399.11333
399.36949
399.61502
399.85013
400.07501
400.28985
400.49484
400.69015
400.87594
401.05237
401.2196
401.37776
401.52701
401.66748
401.79929
401.92257
402.03745
402.14403
402.24244
402.33279
402.41516
402.48968
402.55644
402.61552
402.66704
402.71106
402.74769
402.77701
402.7991
402.81403
402.8219
402.82276
402.81671
402.8038
402.78411
402.75771
402.72467
402.68504
402.6389
402.58631
402.52732
402.462
402.39041
402.31261
402.22865
402.13858
402.04247
401.94036
401.83231
401.71837
401.59859
401.47302
401.34171
401.20472
401.06208
400.91384
400.76006
400.60077
400.43603
400.26588
400.09036
399.90952
399.72339
399.53203
399.33548
399.13377
398.92695
398.71507
398.49815
398.27624
398.04938
397.81761
397.58097
397.3395
397.09323
396.8422
396.58645
396.32602
396.06094
395.79125
395.51698
395.23817
394.95485
394.66706
394.37482
394.07819
393.77717
393.47182
393.16215
392.84821
392.53002
392.2076
391.881
391.55024
391.21534
390.87634
390.53326
390.18613
389.83497
389.47981
389.12066
388.75757
388.39054
388.0196
387.64478
387.26608
386.88353
386.49715
386.10696
385.71297
385.31519
384.91365
384.50836
384.09932
383.68656
383.27008
382.84989
382.426
381.99842
381.56715
381.1322
380.69358
380.25128
379.80532
379.35568
378.90237
378.44539
373.57044
374.7038
375.81652
376.89927
377.94655
378.95575
379.92627
380.85868
381.75423
382.61451
383.44121
384.23604
385.00067
385.73664
386.44542
387.12835
387.78669
388.42157
389.03407
389.62513
390.19568
390.74653
391.27845
391.79216
392.2883
392.76749
393.2303
393.67727
394.10889
394.52562
394.9279
395.31614
395.69073
396.05202
396.40037
396.73608
397.05948
397.37084
397.67045
397.95855
398.23541
398.50125
398.7563
399.00077
399.23487
399.45879
399.67271
399.87682
400.07128
400.25627
400.43192
400.5984
400.75586
400.90442
401.04422
401.1754
401.29807
401.41235
401.51837
401.61623
401.70604
401.7879
401.86192
401.92819
401.98681
402.03787
402.08146
402.11767
402.14657
402.16825
402.18279
402.19028
402.19077
402.18435
402.17109
402.15105
402.12432
402.09094
402.05099
402.00454
401.95164
401.89235
401.82674
401.75486
401.67677
401.59252
401.50218
401.4058
401.30343
401.19512
401.08092
400.96089
400.83507
400.70352
400.56628
400.4234
400.27493
400.12092
399.96141
399.79644
399.62606
399.45032
399.26926
399.08293
398.89136
398.69459
398.49268
398.28565
398.07356
397.85644
397.63434
397.40728
397.17532
396.93849
396.69682
396.45037
396.19915
395.94322
395.68261
395.41735
395.14748
394.87303
394.59405
394.31056
394.0226
393.73021
393.43341
393.13223
392.82672
392.5169
392.20281
391.88446
391.5619
391.23516
390.90426
390.56922
390.23009
389.88688
389.53962
389.18833
388.83305
388.4738
388.11059
387.74345
387.37241
386.99748
386.61869
386.23605
385.84958
385.45931
385.06524
384.66739
384.26578
383.86042
383.45133
383.03851
382.62198
382.20175
381.77783
381.35021
380.91892
380.48395
380.04531
379.60301
379.15704
378.7074
378.25411
377.79714
373.53459
374.59851
375.6475
376.67398
377.67273
378.64062
379.57612
380.47885
381.34915
382.18784
382.99597
383.77472
384.52533
385.249
385.94691
386.6202
387.26993
387.89708
388.50261
389.08737
389.65218
390.1978
390.72493
391.23423
391.72632
392.20176
392.6611
393.10485
393.53346
393.94739
394.34705
394.73284
395.10512
395.46425
395.81056
396.14435
396.46593
396.77558
397.07356
397.36012
397.63551
397.89996
398.15369
398.39689
398.62979
398.85256
399.06538
399.26844
399.4619
399.64592
399.82065
399.98624
400.14284
400.29058
400.4296
400.56001
400.68195
400.79553
400.90087
400.99807
401.08724
401.16849
401.24191
401.30761
401.36567
401.41618
401.45925
401.49494
401.52334
401.54454
401.55862
401.56564
401.56569
401.55883
401.54515
401.5247
401.49756
401.46379
401.42346
401.37662
401.32335
401.2637
401.19773
401.12551
401.04708
400.9625
400.87183
400.77512
400.67243
400.56381
400.44931
400.32897
400.20286
400.07101
399.93348
399.79032
399.64157
399.48728
399.32749
399.16226
398.99161
398.81561
398.63429
398.44769
398.25587
398.05885
397.85669
397.64942
397.43708
397.21973
396.99738
396.77009
396.5379
396.30083
396.05894
395.81226
395.56082
395.30467
395.04384
394.77837
394.50828
394.23363
393.95444
393.67075
393.38259
393.08999
392.793
392.49163
392.18593
391.87593
391.56165
391.24313
390.92039
390.59347
390.2624
389.9272
389.58791
389.24454
388.89713
388.5457
388.19027
387.83088
387.46754
387.10027
386.7291
386.35405
385.97515
385.5924
385.20583
384.81545
384.42129
384.02335
383.62166
383.21623
382.80706
382.39418
381.97759
381.55731
381.13334
380.70569
380.27436
379.83937
379.40071
378.9584
378.51243
378.0628
377.60951
377.15256
373.50402
374.50814
375.50099
376.47643
377.42978
378.35786
379.25874
380.13144
380.9757
381.79174
382.58011
383.34156
384.07692
384.7871
385.47303
386.13561
386.77573
387.39423
387.99191
388.56956
389.12788
389.66756
390.18924
390.69352
391.18098
391.65214
392.1075
392.54755
392.97272
393.38343
393.78008
394.16304
394.53267
394.88931
395.23326
395.56484
395.88432
396.19198
396.48808
396.77286
397.04656
397.3094
397.56159
397.80333
398.03483
398.25627
398.46782
398.66966
398.86195
399.04485
399.21851
399.38308
399.53869
399.68547
399.82357
399.95311
400.07419
400.18695
400.2915
400.38793
400.47636
400.5569
400.62963
400.69465
400.75206
400.80195
400.8444
400.8795
400.90732
400.92796
400.94149
400.94798
400.94751
400.94015
400.92597
400.90504
400.87743
400.8432
400.80242
400.75515
400.70144
400.64137
400.57499
400.50236
400.42353
400.33857
400.24751
400.15043
400.04737
399.93838
399.82352
399.70284
399.57638
399.44419
399.30632
399.16283
399.01375
398.85914
398.69903
398.53348
398.36252
398.18621
398.00459
397.81769
397.62557
397.42826
397.22581
397.01825
396.80563
396.58799
396.36537
396.13781
395.90534
395.66801
395.42585
395.1789
394.92721
394.6708
394.40972
394.14399
393.87366
393.59876
393.31933
393.0354
392.74701
392.45418
392.15696
391.85537
391.54945
391.23922
390.92473
390.606
390.28306
389.95594
389.62468
389.28929
388.9498
388.60625
388.25866
387.90706
387.55146
387.19191
386.82841
386.46099
386.08967
385.71449
385.33544
384.95257
384.56587
384.17538
383.78111
383.38307
382.98128
382.57576
382.16651
381.75356
381.3369
380.91656
380.49253
380.06483
379.63347
379.19845
378.75977
378.31745
377.87147
377.42184
376.96857
376.51164
373.47735
374.42903
375.37191
376.30095
377.2121
378.10232
378.96953
379.81246
380.63045
381.42331
382.19119
382.93447
383.65369
384.34947
385.0225
385.67349
386.30315
386.91218
387.50126
388.07106
388.62221
389.15532
389.67094
390.16965
390.65194
391.11831
391.56923
392.00513
392.42643
392.83352
393.22679
393.60657
393.97322
394.32704
394.66834
394.99742
395.31453
395.61995
395.91392
396.19669
396.46847
396.72948
396.97993
397.22002
397.44994
397.66987
397.87997
398.08043
398.2714
398.45303
398.62547
398.78886
398.94335
399.08906
399.22611
399.35464
399.47476
399.58659
399.69023
399.7858
399.87339
399.95311
400.02505
400.08931
400.14598
400.19515
400.2369
400.27132
400.29849
400.31849
400.3314
400.33728
400.33622
400.32828
400.31354
400.29207
400.26392
400.22917
400.18787
400.1401
400.08591
400.02536
399.9585
399.88541
399.80613
399.72072
399.62923
399.53172
399.42824
399.31883
399.20356
399.08248
398.95562
398.82304
398.68479
398.54092
398.39147
398.23648
398.07601
397.9101
397.73879
397.56213
397.38016
397.19292
397.00046
396.80281
396.60003
396.39214
396.1792
395.96124
395.7383
395.51042
395.27765
395.04001
394.79755
394.5503
394.29831
394.04161
393.78023
393.51422
393.24361
392.96843
392.68872
392.40452
392.11585
391.82276
391.52528
391.22343
390.91726
390.60679
390.29205
389.97308
389.64991
389.32256
388.99107
388.65546
388.31576
387.972
387.62421
387.27241
386.91662
386.55688
386.1932
385.8256
385.45412
385.07877
384.69958
384.31655
383.92972
383.53909
383.14469
382.74654
382.34464
381.93901
381.52967
381.11663
380.6999
380.27948
379.8554
379.42765
378.99624
378.56119
378.12249
377.68014
377.23416
376.78454
376.33128
375.87438
373.45371
374.35871
375.25666
376.14338
377.01534
377.86978
378.70462
379.51843
380.31034
381.07986
381.82686
382.55145
383.25389
383.93458
384.59401
385.2327
385.8512
386.45007
387.0299
387.59122
388.1346
388.66055
389.16958
389.66218
390.13882
390.59994
391.04597
391.47731
391.89435
392.29745
392.68698
393.06325
393.42659
393.77729
394.11566
394.44195
394.75644
395.05936
395.35097
395.63149
395.90114
396.16012
396.40864
396.64688
396.87504
397.09328
397.30178
397.50069
397.69018
397.87039
398.04147
398.20356
398.35679
398.50129
398.63718
398.76459
398.88363
398.99441
399.09705
399.19164
399.27829
399.3571
399.42816
399.49156
399.5474
399.59577
399.63674
399.6704
399.69684
399.71612
399.72832
399.73353
399.73181
399.72322
399.70785
399.68576
399.65701
399.62167
399.57981
399.53147
399.47673
399.41564
399.34826
399.27465
399.19486
399.10895
399.01697
398.91898
398.81502
398.70515
398.58942
398.46788
398.34058
398.20757
398.06889
397.92459
397.77472
397.61932
397.45844
397.29212
397.12041
396.94336
396.761
396.57337
396.38053
396.18251
395.97935
395.7711
395.55779
395.33947
395.11617
394.88794
394.65481
394.41683
394.17403
393.92644
393.67412
393.41708
393.15538
392.88905
392.61812
392.34262
392.06261
391.7781
391.48913
391.19574
390.89796
390.59583
390.28937
389.97862
389.66361
389.34437
389.02093
388.69333
388.36158
388.02572
387.68578
387.34179
386.99376
386.64174
386.28573
385.92578
385.5619
385.19411
384.82244
384.44691
384.06753
383.68434
383.29735
382.90658
382.51204
382.11375
381.71172
381.30598
380.89653
380.48339
380.06657
379.64608
379.22193
378.79412
378.36266
377.92757
377.48884
377.04648
376.60049
376.15087
375.69763
375.24076
373.43247
374.29546
375.15265
376.00055
376.83612
377.65683
378.46072
379.24632
380.0126
380.75893
381.48495
382.19057
382.87583
383.54097
384.18626
384.81209
385.41886
386.00702
386.57703
387.12934
387.66441
388.18269
388.68464
389.17067
389.64121
390.09666
390.53739
390.96379
391.3762
391.77497
392.16042
392.53286
392.89259
393.23989
393.57504
393.89829
394.2099
394.5101
394.79912
395.07717
395.34448
395.60123
395.84762
396.08383
396.31005
396.52644
396.73316
396.93038
397.11824
397.29689
397.46647
397.62712
397.77896
397.92213
398.05674
398.18291
398.30075
398.41038
398.5119
398.60542
398.69103
398.76883
398.83892
398.90138
398.9563
399.00378
399.04389
399.07671
399.10233
399.12082
399.13225
399.1367
399.13425
399.12495
399.10889
399.08611
399.0567
399.02071
398.97821
398.92925
398.8739
398.81221
398.74424
398.67006
398.58971
398.50324
398.41072
398.3122
398.20771
398.09733
397.98109
397.85905
397.73126
397.59776
397.4586
397.31383
397.16349
397.00763
396.8463
396.67953
396.50738
396.32989
396.14709
395.95904
395.76578
395.56734
395.36377
395.1551
394.94139
394.72267
394.49898
394.27035
394.03684
393.79847
393.55529
393.30733
393.05463
392.79723
392.53517
392.26847
391.99719
391.72135
391.44098
391.15613
390.86683
390.57311
390.27501
389.97255
389.66578
389.35471
389.0394
388.71986
388.39613
388.06823
387.7362
387.40007
387.05986
386.7156
386.36732
386.01505
385.6588
385.29861
384.9345
384.5665
384.19461
383.81888
383.43931
383.05594
382.66877
382.27783
381.88313
381.48469
381.08253
380.67666
380.26709
379.85384
379.43692
379.01634
378.59211
378.16423
377.73272
377.29759
376.85882
376.41644
375.97045
375.52083
375.06761
374.61076
373.41321
374.23798
375.05793
375.87007
376.67175
377.46071
378.23511
378.99351
379.73483
380.4583
381.16346
381.85003
382.51792
383.16719
383.79798
384.41054
385.00515
385.58213
386.14186
386.68469
387.211
387.72118
388.21561
388.69466
389.1587
389.60808
390.04315
390.46425
390.8717
391.2658
391.64687
392.01518
392.37102
392.71464
393.04632
393.36628
393.67477
393.97201
394.25822
394.53361
394.79837
395.05269
395.29677
395.53078
395.75489
395.96926
396.17405
396.36942
396.55551
396.73246
396.9004
397.05948
397.20981
397.35152
397.48473
397.60955
397.72609
397.83446
397.93477
398.02711
398.11158
398.18828
398.2573
398.31873
398.37265
398.41915
398.45832
398.49023
398.51495
398.53257
398.54316
398.54679
398.54353
398.53345
398.51662
398.4931
398.46296
398.42626
398.38306
398.33342
398.2774
398.21506
398.14645
398.07164
397.99067
397.9036
397.81048
397.71137
397.60631
397.49536
397.37857
397.25598
397.12764
396.99361
396.85393
396.70863
396.55779
396.40142
396.23959
396.07233
395.89969
395.72172
395.53845
395.34993
395.1562
394.9573
394.75327
394.54416
394.33
394.11084
393.88671
393.65766
393.42372
393.18493
392.94133
392.69295
392.43985
392.18204
391.91958
391.65249
391.38082
391.10459
390.82385
390.53862
390.24895
389.95486
389.6564
389.35359
389.04647
388.73506
388.41941
388.09954
387.77548
387.44727
387.11493
386.77849
386.43798
386.09344
385.74487
385.39232
385.03581
384.67537
384.31101
383.94276
383.57064
383.19469
382.81491
382.43132
382.04396
381.65283
381.25796
380.85936
380.45704
380.05103
379.64133
379.22796
378.81093
378.39025
377.96593
377.53798
377.10641
376.67123
376.23243
375.79003
375.34402
374.89441
374.4412
373.98439
373.39558
374.18534
374.97102
375.75004
376.52009
377.27915
378.02551
378.75779
379.47489
380.176
380.86055
381.52816
382.17863
382.81188
383.42794
384.02693
384.60905
385.17451
385.72358
386.25655
386.77373
387.27543
387.76197
388.23367
388.69085
389.13382
389.56289
389.97837
390.38053
390.76968
391.14607
391.50997
391.86165
392.20135
392.5293
392.84574
393.15089
393.44496
393.72815
394.00066
394.26269
394.51441
394.756
394.98763
395.20947
395.42166
395.62437
395.81774
396.00192
396.17703
396.34321
396.50058
396.64928
396.78942
396.92111
397.04446
397.1596
397.2666
397.36559
397.45666
397.5399
397.61541
397.68328
397.74358
397.79642
397.84187
397.88001
397.91092
397.93468
397.95136
397.96103
397.96376
397.95963
397.94871
397.93105
397.90672
397.87578
397.83831
397.79435
397.74397
397.68722
397.62417
397.55487
397.47937
397.39773
397.31
397.21624
397.11649
397.0108
396.89924
396.78184
396.65865
396.52973
396.39511
396.25486
396.109
395.95759
395.80068
395.63831
395.47051
395.29734
395.11885
394.93506
394.74603
394.55179
394.35239
394.14787
393.93826
393.72362
393.50398
393.27937
393.04985
392.81544
392.57619
392.33214
392.08331
391.82976
391.57152
391.30862
391.0411
390.769
390.49235
390.21119
389.92555
389.63548
389.34099
389.04214
388.73894
388.43144
388.11966
387.80364
387.48341
387.15899
386.83043
386.49775
386.16098
385.82015
385.47529
385.12641
384.77356
384.41676
384.05603
383.6914
383.32288
382.95051
382.57431
382.1943
381.81049
381.42291
381.03158
380.63652
380.23774
379.83525
379.42908
379.01924
378.60573
378.18858
377.7678
377.34339
376.91536
376.48372
376.04848
375.60964
375.16721
374.72119
374.27158
373.81839
373.36161
373.37933
374.1368
374.89075
375.63898
376.37943
377.11029
377.83
378.53724
379.23094
379.91026
380.57458
381.22345
381.85656
382.47375
383.07496
383.66022
384.2296
384.78327
385.3214
385.84421
386.35193
386.84483
387.32316
387.78719
388.2372
388.67346
389.09623
389.50579
389.90239
390.2863
390.65775
391.017
391.36427
391.6998
392.0238
392.3365
392.63809
392.92878
393.20876
393.47821
393.73732
393.98625
394.22519
394.45428
394.67368
394.88355
395.08403
395.27527
395.45739
395.63053
395.79481
395.95037
396.09731
396.23576
396.36582
396.48761
396.60122
396.70677
396.80434
396.89404
396.97596
397.05019
397.11681
397.17591
397.22758
397.27189
397.30893
397.33877
397.36148
397.37715
397.38583
397.3876
397.38254
397.37069
397.35214
397.32694
397.29515
397.25684
397.21206
397.16088
397.10336
397.03954
396.96948
396.89324
396.81088
396.72244
396.62797
396.52754
396.42118
396.30895
396.19089
396.06706
395.9375
395.80226
395.66138
395.51492
395.36291
395.2054
395.04244
394.87407
394.70033
394.52126
394.33691
394.14733
393.95254
393.7526
393.54754
393.33741
393.12224
392.90208
392.67696
392.44692
392.21201
391.97226
391.72771
391.4784
391.22437
390.96565
390.70227
390.43429
390.16172
389.88462
389.60301
389.31693
389.02641
388.7315
388.43221
388.1286
387.82068
387.5085
387.19208
386.87145
386.54666
386.21772
385.88467
385.54754
385.20635
384.86114
384.51193
384.15876
383.80164
383.4406
383.07567
382.70687
382.33422
381.95775
381.57748
381.19343
380.80562
380.41407
380.0188
379.61982
379.21715
378.81081
378.40081
377.98716
377.56988
377.14897
376.72446
376.29634
375.86463
375.42933
374.99044
374.54798
374.10195
373.65235
373.19917
372.74243
373.36427
374.09177
374.81622
375.53569
376.24835
376.95259
377.64695
378.33022
379.00136
379.65953
380.30407
380.93448
381.55041
382.15161
382.73794
383.30936
383.86588
384.40757
384.93454
385.44695
385.94496
386.42879
386.89864
387.35474
387.7973
388.22658
388.64279
389.04617
389.43696
389.81537
390.18165
390.536
390.87863
391.20977
391.52962
391.83836
392.13619
392.42331
392.69989
392.9661
393.22211
393.4681
393.70421
393.93061
394.14743
394.35483
394.55294
394.7419
394.92184
395.09288
395.25515
395.40876
395.55384
395.69048
395.81881
395.93892
396.05092
396.1549
396.25097
396.33921
396.41971
396.49257
396.55786
396.61567
396.66609
396.70919
396.74505
396.77374
396.79534
396.80992
396.81754
396.81829
396.81221
396.79939
396.77988
396.75374
396.72104
396.68183
396.63618
396.58415
396.52578
396.46114
396.39028
396.31325
396.2301
396.1409
396.04569
395.94451
395.83743
395.72448
395.60572
395.4812
395.35095
395.21504
395.0735
394.92638
394.77372
394.61558
394.45198
394.28299
394.10863
393.92896
393.74401
393.55382
393.35845
393.15792
392.95229
392.74158
392.52585
392.30513
392.07946
391.84887
391.61342
391.37314
391.12805
390.87822
390.62366
390.36442
390.10054
389.83205
389.55899
389.2814
388.9993
388.71274
388.42175
388.12637
387.82663
387.52256
387.21419
386.90157
386.58472
386.26367
385.93846
385.60911
385.27566
384.93814
384.59658
384.25099
383.90142
383.54789
383.19043
382.82906
382.46381
382.0947
381.72175
381.34499
380.96445
380.58013
380.19207
379.80028
379.40478
379.00559
378.60272
378.19619
377.78602
377.37222
376.95479
376.53376
376.10913
375.68092
375.24912
374.81376
374.37483
373.93233
373.48628
373.03668
372.58352
372.12682
373.35023
374.0498
374.74669
375.43919
376.1257
376.80475
377.47501
378.13534
378.78475
379.42242
380.04768
380.66
381.25898
381.84433
382.41584
382.97341
383.51699
384.04658
384.56224
385.06407
385.55219
386.02674
386.48789
386.93581
387.3707
387.79276
388.20217
388.59915
388.98388
389.35659
389.71746
390.0667
390.4045
390.73104
391.04652
391.35112
391.64502
391.92838
392.20138
392.46418
392.71694
392.95982
393.19296
393.41651
393.63061
393.83539
394.031
394.21755
394.39518
394.564
394.72414
394.8757
395.01879
395.15353
395.28002
395.39835
395.50863
395.61096
395.70542
395.79211
395.87111
395.94251
396.00639
396.06283
396.11192
396.15373
396.18833
396.21581
396.23622
396.24964
396.25614
396.25579
396.24864
396.23477
396.21424
396.18711
396.15343
396.11327
396.06669
396.01374
395.95448
395.88896
395.81724
395.73936
395.65539
395.56537
395.46936
395.36739
395.25954
395.14583
395.02632
394.90105
394.77008
394.63345
394.4912
394.34338
394.19003
394.0312
393.86693
393.69727
393.52225
393.34193
393.15633
392.96551
392.76951
392.56836
392.36211
392.15079
391.93445
391.71313
391.48687
391.2557
391.01966
390.7788
390.53315
390.28275
390.02764
389.76785
389.50342
389.23439
388.96079
388.68267
388.40006
388.11298
387.82149
387.5256
387.22536
386.92081
386.61197
386.29887
385.98156
385.66005
385.33439
385.00461
384.67073
384.33279
383.99082
383.64483
383.29487
382.94096
382.58313
382.2214
381.8558
381.48636
381.11309
380.73602
380.35518
379.97058
379.58225
379.1902
378.79446
378.39503
377.99195
377.58522
377.17487
376.76089
376.34331
375.92214
375.49739
375.06907
374.63719
374.20175
373.76277
373.32024
372.87417
372.42456
371.97143
371.51475
373.3371
374.0105
374.68154
375.34869
376.01052
376.66569
377.313
377.95138
378.57989
379.19773
379.80423
380.39886
380.98119
381.55088
382.10769
382.65145
383.18208
383.69952
384.20379
384.69491
385.17298
385.63809
386.09035
386.52992
386.95694
387.37158
387.77399
388.16436
388.54285
388.90964
389.26492
389.60885
389.94161
390.26338
390.57432
390.87459
391.16437
391.44382
391.71308
391.97231
392.22166
392.46128
392.6913
392.91186
393.1231
393.32514
393.51811
393.70214
393.87733
394.04382
394.2017
394.3511
394.4921
394.62483
394.74937
394.86583
394.9743
395.07488
395.16764
395.25269
395.3301
395.39996
395.46235
395.51735
395.56503
395.60547
395.63875
395.66493
395.68409
395.69628
395.70159
395.70007
395.6918
395.67682
395.65521
395.62702
395.59231
395.55114
395.50357
395.44965
395.38944
395.32298
395.25035
395.17158
395.08673
394.99584
394.89897
394.79618
394.68749
394.57297
394.45267
394.32661
394.19487
394.05747
393.91446
393.7659
393.61182
393.45226
393.28728
393.1169
392.94119
392.76017
392.57389
392.38239
392.18571
391.9839
391.77699
391.56502
391.34804
391.12608
390.89918
390.66738
390.43073
390.18925
389.943
389.69199
389.43629
389.17591
388.9109
388.64129
388.36713
388.08844
387.80527
387.51764
387.22561
386.92919
386.62842
386.32335
386.01399
385.70039
385.38258
385.06059
384.73446
384.4042
384.06987
383.73148
383.38906
383.04265
382.69227
382.33796
381.97973
381.61762
381.25165
380.88184
380.50823
380.13083
379.74967
379.36476
378.97614
378.58382
378.18781
377.78814
377.38483
376.97788
376.56733
376.15317
375.73543
375.31411
374.88923
374.46079
374.02881
373.5933
373.15425
372.71168
372.26559
371.81598
371.36286
370.90623
373.32476
373.97357
374.62027
375.26351
375.90199
376.5345
377.15993
377.77729
378.38569
378.98436
379.57266
380.15003
380.71603
381.2703
381.81257
382.34264
382.86036
383.36565
383.85846
384.33881
384.80673
385.26227
385.70552
386.13658
386.55557
386.96262
387.35786
387.74144
388.11351
388.47421
388.82372
389.16217
389.48972
389.80654
390.11277
390.40856
390.69407
390.96943
391.2348
391.49032
391.73611
391.97233
392.19909
392.41653
392.62478
392.82395
393.01417
393.19555
393.3682
393.53223
393.68776
393.83488
393.9737
394.10431
394.22681
394.3413
394.44787
394.5466
394.63759
394.72091
394.79665
394.86489
394.92571
394.97918
395.02538
395.06439
395.09626
395.12108
395.13891
395.14982
395.15387
395.15112
395.14165
395.1255
395.10275
395.07344
395.03764
394.99541
394.94679
394.89185
394.83063
394.76319
394.68959
394.60987
394.52409
394.43229
394.33453
394.23084
394.12129