/*--------------------------------*- C++ -*----------------------------------*\
| =========                 |                                                 |
| \\      /  F ield         | OpenFOAM: The Open Source CFD Toolbox           |
|  \\    /   O peration     | Version:  v1606+                                |
|   \\  /    A nd           | Web:      www.OpenFOAM.com                      |
|    \\/     M anipulation  |                                                 |
\*---------------------------------------------------------------------------*/
FoamFile
{
    version     2.0;
    format      ascii;
    class       volScalarField;
    location    "0.02/unShaded";
    object      T;
}
// * * * * * * * * * * * * * * * * * * * * * * * * * * * * * * * * * * * * * //

dimensions      [0 0 0 1 0 0 0];

internalField   nonuniform List<scalar> 
24480
(
374.10662
375.89545
377.44199
378.82761
380.09486
381.269
382.36655
383.39908
384.37515
385.3013
386.18272
387.02361
387.82745
388.59715
389.3352
390.04374
390.72464
391.37952
392.00984
392.61689
393.20182
393.76567
394.30939
394.83383
395.33978
395.82796
396.29903
396.75359
397.19222
397.61543
398.02371
398.41752
398.79728
399.16339
399.51622
399.85612
400.18343
400.49845
400.80148
401.09279
401.37265
401.64131
401.89901
402.14597
402.3824
402.60852
402.82451
403.03057
403.22686
403.41357
403.59085
403.75887
403.91776
404.06768
404.20876
404.34114
404.46495
404.5803
404.68732
404.78613
404.87683
404.95953
405.03434
405.10135
405.16066
405.21238
405.25657
405.29335
405.32279
405.34497
405.35998
405.3679
405.3688
405.36276
405.34985
405.33014
405.3037
405.2706
405.23091
405.18468
405.13199
405.0729
405.00746
404.93574
404.85779
404.77367
404.68344
404.58715
404.48486
404.37661
404.26247
404.14248
404.0167
403.88517
403.74794
403.60506
403.45659
403.30255
403.14301
402.97801
402.80759
402.6318
402.45069
402.26428
402.07264
401.8758
401.6738
401.46669
401.2545
401.03728
400.81507
400.58791
400.35583
400.11887
399.87709
399.6305
399.37915
399.12308
398.86233
398.59692
398.3269
398.0523
397.77316
397.48951
397.20138
396.90882
396.61184
396.31049
396.0048
395.6948
395.38051
395.06198
394.73923
394.41228
394.08118
393.74594
393.40659
393.06317
392.7157
392.36419
392.00869
391.64921
391.28577
390.9184
390.54712
390.17196
389.79292
389.41004
389.02332
388.6328
388.23847
387.84037
387.4385
387.03288
386.62353
386.21045
385.79365
385.37314
384.94894
384.52106
384.08949
383.65424
383.21532
382.77274
382.32648
381.87656
381.42298
380.96572
373.86438
375.47107
376.93625
378.27932
379.52129
380.67892
381.76489
382.78889
383.7584
384.67936
385.55658
386.394
387.19492
387.96213
388.69804
389.40472
390.08398
390.73742
391.36645
391.97234
392.55623
393.11914
393.662
394.18566
394.69089
395.17841
395.64886
396.10286
396.54096
396.96369
397.37151
397.7649
398.14426
398.51
398.86248
399.20205
399.52905
399.84377
400.14652
400.43757
400.71719
400.98561
401.24308
401.48983
401.72606
401.95198
402.16778
402.37366
402.56979
402.75633
402.93345
403.10132
403.26007
403.40985
403.5508
403.68305
403.80673
403.92197
404.02887
404.12757
404.21816
404.30076
404.37547
404.44238
404.5016
404.55322
404.59733
404.63402
404.66338
404.68548
404.70041
404.70825
404.70908
404.70296
404.68998
404.6702
404.64369
404.61053
404.57077
404.52448
404.47173
404.41258
404.34708
404.2753
404.19729
404.11312
404.02283
403.92649
403.82414
403.71585
403.60165
403.48161
403.35578
403.2242
403.08692
402.944
402.79547
402.64139
402.48181
402.31676
402.1463
401.97046
401.7893
401.60286
401.41117
401.21429
401.01225
400.8051
400.59287
400.37561
400.15336
399.92615
399.69404
399.45704
399.21522
398.96859
398.71721
398.4611
398.20031
397.93487
397.66481
397.39018
397.111
396.82732
396.53916
396.24656
395.94955
395.64817
395.34245
395.03241
394.7181
394.39953
394.07675
393.74978
393.41864
393.08338
392.74401
392.40056
392.05306
391.70153
391.346
390.98649
390.62303
390.25565
389.88435
389.50916
389.1301
388.7472
388.36047
387.96993
387.57559
387.17747
386.77559
386.36996
385.96059
385.54749
385.13069
384.71017
384.28597
383.85807
383.4265
382.99125
382.55232
382.10974
381.66348
381.21356
380.75998
380.30273
373.74421
375.18818
376.55262
377.83213
379.03208
380.16049
381.22522
382.23318
383.19019
384.10117
384.97024
385.80088
386.59609
387.35843
388.09012
388.79312
389.46915
390.11972
390.74619
391.34979
391.93161
392.49265
393.03381
393.55591
394.05971
394.54592
395.01516
395.46803
395.90509
396.32684
396.73377
397.1263
397.50487
397.86987
398.22165
398.56056
398.88694
399.20108
399.50327
399.79379
400.07291
400.34086
400.59788
400.8442
401.08002
401.30555
401.52098
401.7265
401.92229
402.10851
402.28532
402.45288
402.61134
402.76085
402.90153
403.03353
403.15696
403.27196
403.37864
403.47711
403.56749
403.64988
403.72439
403.79111
403.85014
403.90158
403.94551
403.98203
404.01121
404.03315
404.04793
404.05562
404.05629
404.05003
404.03691
404.01699
403.99035
403.95705
403.91716
403.87075
403.81787
403.7586
403.69298
403.62108
403.54296
403.45867
403.36828
403.27183
403.16937
403.06097
402.94668
402.82654
402.7006
402.56893
402.43155
402.28853
402.13991
401.98574
401.82606
401.66093
401.49038
401.31445
401.1332
400.94667
400.7549
400.55793
400.35581
400.14858
399.93627
399.71893
399.4966
399.26931
399.03712
398.80005
398.55815
398.31145
398.05999
397.80381
397.54294
397.27743
397.0073
396.7326
396.45335
396.1696
395.88137
395.58871
395.29163
394.99019
394.6844
394.3743
394.05993
393.7413
393.41846
393.09143
392.76024
392.42492
392.0855
391.74199
391.39444
391.04286
390.68729
390.32774
389.96423
389.5968
389.22546
388.85023
388.47114
388.0882
387.70143
387.31085
386.91648
386.51833
386.11642
385.71076
385.30137
384.88826
384.47143
384.0509
383.62668
383.19877
382.76718
382.33192
381.89299
381.4504
381.00415
380.55423
380.10065
379.6434
373.6685
374.98482
376.25392
377.46451
378.6144
379.70573
380.74233
381.72841
382.66803
383.56489
384.42232
385.2432
386.03013
386.78536
387.51089
388.2085
388.87977
389.52612
390.14882
390.74903
391.32779
391.88605
392.42467
392.94446
393.44614
393.93038
394.39782
394.84902
395.28452
395.70483
396.1104
396.50168
396.87906
397.24295
397.59368
397.93161
398.25706
398.57032
398.87169
399.16143
399.43979
399.70704
399.96338
400.20906
400.44427
400.66922
400.8841
401.08908
401.28436
401.47009
401.64643
401.81355
401.97158
402.12067
402.26095
402.39256
402.51563
402.63027
402.73661
402.83475
402.9248
403.00688
403.08109
403.14752
403.20627
403.25743
403.3011
403.33736
403.3663
403.388
403.40254
403.40999
403.41044
403.40396
403.39063
403.3705
403.34366
403.31016
403.27008
403.22348
403.17041
403.11096
403.04516
402.97309
402.8948
402.81034
402.71978
402.62317
402.52056
402.412
402.29755
402.17726
402.05117
401.91935
401.78183
401.63867
401.48991
401.3356
401.17578
401.01051
400.83982
400.66377
400.48239
400.29573
400.10383
399.90674
399.70449
399.49713
399.2847
399.06724
398.84479
398.61738
398.38507
398.14789
397.90587
397.65906
397.40749
397.1512
396.89022
396.6246
396.35437
396.07956
395.80021
395.51635
395.22803
394.93526
394.63809
394.33655
394.03067
393.72048
393.40601
393.08729
392.76436
392.43725
392.10597
391.77057
391.43106
391.08748
390.73985
390.3882
390.03255
389.67293
389.30936
388.94186
388.57045
388.19516
387.81601
387.43302
387.0462
386.65557
386.26115
385.86296
385.46101
385.05531
384.64588
384.23273
383.81587
383.39532
382.97107
382.54314
382.11154
381.67627
381.23733
380.79473
380.34847
379.89855
379.44498
378.98774
373.61346
374.82869
376.01374
377.15758
378.25527
379.30571
380.30996
381.2701
382.18861
383.06806
383.91092
384.71949
385.49587
386.24199
386.95958
387.65021
388.31531
388.95616
389.57394
390.16971
390.74446
391.29907
391.83437
392.35111
392.85
393.33166
393.79671
394.2457
394.67915
395.09754
395.50133
395.89094
396.26676
396.62917
396.97852
397.31515
397.63937
397.95147
398.25173
398.54043
398.81781
399.08411
399.33956
399.58439
399.81879
400.04296
400.2571
400.46138
400.65598
400.84106
401.01678
401.1833
401.34076
401.48929
401.62905
401.76015
401.88272
401.99689
402.10277
402.20047
402.2901
402.37176
402.44557
402.51161
402.56999
402.62079
402.6641
402.70002
402.72863
402.75
402.76422
402.77137
402.77153
402.76476
402.75113
402.73073
402.70362
402.66986
402.62952
402.58266
402.52935
402.46965
402.40362
402.33132
402.2528
402.16812
402.07734
401.98051
401.87768
401.76892
401.65426
401.53377
401.40748
401.27546
401.13775
400.9944
400.84545
400.69095
400.53096
400.3655
400.19464
400.01841
399.83685
399.65002
399.45795
399.26069
399.05828
398.85075
398.63816
398.42054
398.19793
397.97037
397.7379
397.50056
397.25839
397.01143
396.75971
396.50327
396.24215
395.97639
395.70601
395.43106
395.15157
394.86758
394.57912
394.28622
393.98892
393.68725
393.38124
393.07092
392.75634
392.4375
392.11445
391.78722
391.45583
391.12032
390.7807
390.43702
390.08929
389.73754
389.38179
389.02207
388.65841
388.29082
387.91933
387.54396
387.16473
386.78166
386.39477
386.00408
385.60959
385.21134
384.80933
384.40358
383.99411
383.58091
383.16402
382.74342
382.31915
381.89119
381.45957
381.02428
380.58532
380.14272
379.69646
379.24654
378.79297
378.33575
373.57009
374.70275
375.81476
376.89681
377.94338
378.95189
379.9217
380.85341
381.74826
382.60783
383.43383
384.22796
384.99188
385.72715
386.43523
387.11746
387.77509
388.40927
389.02106
389.61143
390.18127
390.73141
391.26263
391.77563
392.27107
392.74956
393.21167
393.65793
394.08884
394.50487
394.90644
395.29398
395.66786
396.02845
396.37609
396.7111
397.03379
397.34445
397.64335
397.93075
398.2069
398.47203
398.72637
398.97014
399.20353
399.42674
399.63995
399.84336
400.03711
400.22138
400.39633
400.56211
400.71885
400.8667
401.0058
401.13626
401.25822
401.3718
401.47711
401.57425
401.66335
401.7445
401.81781
401.88337
401.94128
401.99163
402.0345
402.06999
402.09818
402.11915
402.13298
402.13975
402.13953
402.1324
402.11842
402.09768
402.07022
402.03613
401.99547
401.9483
401.89468
401.83468
401.76835
401.69576
401.61695
401.53199
401.44094
401.34384
401.24075
401.13172
401.01681
400.89607
400.76953
400.63727
400.49932
400.35572
400.20654
400.05181
399.89159
399.72591
399.55482
399.37837
399.1966
399.00955
398.81727
398.6198
398.41717
398.20944
397.99665
397.77882
397.55602
397.32826
397.0956
396.85807
396.61571
396.36855
396.11665
395.86003
395.59872
395.33278
395.06223
394.7871
394.50744
394.22328
393.93465
393.64158
393.34412
393.04229
392.73612
392.42565
392.11091
391.79192
391.46873
391.14135
390.80982
390.47417
390.13442
389.7906
389.44274
389.09086
388.735
388.37516
388.01138
387.64369
387.27209
386.89662
386.51729
386.13413
385.74715
385.35637
384.96181
384.56348
384.1614
383.75559
383.34605
382.9328
382.51585
382.09522
381.6709
381.24291
380.81126
380.37594
379.93698
379.49436
379.04809
378.59818
378.14462
377.68741
373.53424
374.59745
375.64574
376.67152
377.66957
378.63675
379.57155
380.47358
381.34318
382.18117
382.98859
383.76664
384.51654
385.23951
385.93672
386.60931
387.25833
387.88478
388.4896
389.07366
389.63777
390.18268
390.70911
391.21771
391.70909
392.18383
392.64247
393.0855
393.51341
393.92664
394.3256
394.71068
395.08226
395.44068
395.78628
396.11937
396.44025
396.74918
397.04646
397.33232
397.607
397.87074
398.12376
398.36626
398.59845
398.82051
399.03263
399.23498
399.42773
399.61104
399.78506
399.94995
400.10584
400.25287
400.39117
400.52088
400.64211
400.75498
400.8596
400.95609
401.04455
401.12509
401.1978
401.26279
401.32013
401.36994
401.41229
401.44727
401.47496
401.49545
401.50881
401.51512
401.51445
401.50688
401.49249
401.47132
401.44347
401.40898
401.36794
401.32039
401.2664
401.20604
401.13935
401.06641
400.98726
400.90197
400.81059
400.71316
400.60976
400.50042
400.3852
400.26415
400.13732
400.00476
399.86652
399.72264
399.57318
399.41817
399.25767
399.09172
398.92037
398.74365
398.56162
398.37431
398.18178
397.98405
397.78118
397.5732
397.36016
397.1421
396.91905
396.69106
396.45816
396.2204
395.97781
395.73043
395.47831
395.22146
394.95994
394.69378
394.42301
394.14768
393.86781
393.58344
393.29461
393.00135
392.70369
392.40166
392.0953
391.78464
391.46972
391.15055
390.82718
390.49963
390.16793
389.83211
389.4922
389.14822
388.80021
388.44818
388.09217
387.73219
387.36828
387.00045
386.62873
386.25313
385.87369
385.49041
385.10333
384.71245
384.31779
383.91937
383.51721
383.11131
382.7017
382.28839
381.87138
381.45069
381.02633
380.5983
380.16661
379.73127
379.29228
378.84965
378.40338
377.95347
377.49992
377.04272
373.50366
374.50708
375.49924
376.47397
377.42662
378.354
379.25417
380.12617
380.96972
381.78506
382.57274
383.33347
384.06813
384.77762
385.46284
386.12472
386.76413
387.38192
387.97891
388.55585
389.11347
389.65244
390.17342
390.677
391.16375
391.63421
392.08887
392.52821
392.95267
393.36268
393.75862
394.14088
394.50981
394.86574
395.20899
395.53986
395.85863
396.16559
396.46098
396.74506
397.01805
397.28018
397.53166
397.7727
398.00349
398.22422
398.43507
398.6362
398.82778
399.00997
399.18292
399.34678
399.50168
399.64776
399.78515
399.91397
400.03435
400.1464
400.25023
400.34596
400.43368
400.5135
400.58552
400.64983
400.70653
400.75571
400.79744
400.83183
400.85894
400.87887
400.89168
400.89746
400.89628
400.8882
400.87331
400.85167
400.82334
400.7884
400.7469
400.69891
400.64449
400.58371
400.51661
400.44326
400.36372
400.27804
400.18627
400.08847
399.98469
399.87499
399.75941
399.63801
399.51084
399.37793
399.23935
399.09515
398.94535
398.79002
398.6292
398.46294
398.29127
398.11425
397.93191
397.74431
397.55147
397.35345
397.15029
396.94203
396.7287
396.51036
396.28703
396.05876
395.82559
395.58756
395.34471
395.09707
394.84468
394.58757
394.3258
394.05939
393.78837
393.51279
393.23268
392.94807
392.659
392.36551
392.06762
391.76537
391.45879
391.14791
390.83277
390.51339
390.18981
389.86206
389.53016
389.19415
388.85405
388.50989
388.16169
387.80949
387.45331
387.09317
386.72909
386.36111
385.98924
385.6135
385.23392
384.85051
384.4633
384.0723
383.67753
383.279
382.87674
382.47076
382.06106
381.64767
381.23059
380.80984
380.38542
379.95734
379.52561
379.09024
378.65123
378.20858
377.7623
377.31239
376.85885
376.40168
373.477
374.42797
375.37015
376.29849
377.20894
378.09845
378.96497
379.80719
380.62448
381.41663
382.18381
382.92639
383.6449
384.33998
385.01231
385.6626
386.29155
386.89988
387.48826
388.05736
388.6078
389.1402
389.65513
390.15312
390.63471
391.10038
391.55059
391.98579
392.40639
392.81278
393.20534
393.58442
393.95036
394.30347
394.64407
394.97244
395.28885
395.59356
395.88683
396.16888
396.43996
396.70026
396.95001
397.18939
397.4186
397.63782
397.84722
398.04697
398.23723
398.41815
398.58988
398.75257
398.90635
399.05134
399.18769
399.31551
399.43492
399.54604
399.64897
399.74383
399.83071
399.90972
399.98095
400.0445
400.10045
400.14891
400.18995
400.22366
400.25011
400.2694
400.28159
400.28676
400.28499
400.27634
400.26088
400.23869
400.20983
400.17436
400.13235
400.08386
400.02896
399.96769
399.90012
399.82631
399.74632
399.66019
399.56799
399.46976
399.36556
399.25544
399.13946
399.01765
398.89008
398.75679
398.61782
398.47323
398.32307
398.16737
398.00618
397.83956
397.66753
397.49016
397.30748
397.11953
396.92635
396.728
396.5245
396.31591
396.10226
395.88359
395.65995
395.43137
395.19789
394.95955
394.71639
394.46845
394.21576
393.95836
393.69629
393.42959
393.15829
392.88243
392.60204
392.31716
392.02783
391.73406
391.43591
391.1334
390.82657
390.51544
390.20005
389.88044
389.55662
389.22863
388.89651
388.56027
388.21996
387.87558
387.52718
387.17478
386.8184
386.45807
386.09381
385.72565
385.35361
384.97771
384.59797
384.21441
383.82706
383.43592
383.04102
382.64238
382.24
381.83391
381.42412
381.01064
380.59348
380.17265
379.74817
379.32003
378.88826
378.45285
378.01381
377.57115
377.12486
376.67495
376.22142
375.76427
373.45336
374.35766
375.25491
376.14092
377.01218
377.86591
378.70005
379.51316
380.30436
381.07318
381.81948
382.54336
383.2451
383.9251
384.58382
385.2218
385.8396
386.43777
387.01689
387.57752
388.12019
388.64543
389.15376
389.64566
390.12159
390.58201
391.02733
391.45797
391.87431
392.27671
392.66553
393.04109
393.40373
393.75373
394.09138
394.41697
394.73075
395.03298
395.32388
395.60369
395.87263
396.13091
396.37872
396.61625
396.8437
397.06124
397.26903
397.46723
397.65601
397.83552
398.00589
398.16727
398.31979
398.46358
398.59876
398.72546
398.84379
398.95386
399.05579
399.14967
399.23561
399.3137
399.38405
399.44675
399.50188
399.54953
399.58979
399.62274
399.64846
399.66703
399.67852
399.68301
399.68057
399.67128
399.65519
399.63239
399.60293
399.56687
399.52429
399.47524
399.41978
399.35797
399.28988
399.21555
399.13504
399.04842
398.95572
398.85701
398.75234
398.64176
398.52531
398.40306
398.27504
398.14131
398.00191
397.8569
397.70631
397.5502
397.3886
397.22157
397.04915
396.87138
396.68831
396.49997
396.30642
396.10768
395.90382
395.69485
395.48084
395.26181
395.03781
394.80887
394.57504
394.33635
394.09285
393.84457
393.59155
393.33382
393.07142
392.8044
392.53278
392.2566
391.9759
391.69071
391.40107
391.10701
390.80856
390.50576
390.19864
389.88723
389.57157
389.25168
388.92759
388.59935
388.26697
387.93048
387.58992
387.24531
386.89667
386.54404
386.18745
385.8269
385.46244
385.09408
384.72184
384.34576
383.96584
383.58211
383.1946
382.80331
382.40826
382.00948
381.60698
381.20077
380.79086
380.37728
379.96003
379.53912
379.11456
378.68637
378.25454
377.81909
377.38002
376.93733
376.49104
376.04113
375.58761
375.13049
373.43212
374.2944
375.15089
375.99809
376.83296
377.65297
378.45615
379.24105
380.00663
380.75226
381.47758
382.18248
382.86705
383.53148
384.17607
384.8012
385.40727
385.99473
386.56403
387.11563
387.65
388.16758
388.66882
389.15415
389.62399
390.07873
390.51876
390.94445
391.35616
391.75422
392.13897
392.5107
392.86973
393.21633
393.55077
393.87332
394.18422
394.48371
394.77202
395.04937
395.31597
395.57201
395.8177
396.05321
396.27872
396.4944
396.70041
396.89692
397.08408
397.26202
397.43089
397.59083
397.74196
397.88442
398.01832
398.14378
398.26092
398.36984
398.47065
398.56345
398.64835
398.72544
398.79482
398.85657
398.91078
398.95754
398.99694
399.02905
399.05395
399.07173
399.08245
399.08619
399.08302
399.07301
399.05623
399.03274
399.00261
398.96591
398.92269
398.87301
398.81695
398.75454
398.68586
398.61096
398.52989
398.44271
398.34948
398.25023
398.14504
398.03394
397.91698
397.79423
397.66572
397.5315
397.39162
397.24614
397.09508
396.93851
396.77646
396.60898
396.43611
396.25791
396.0744
395.88563
395.69165
395.4925
395.28822
395.07885
394.86443
394.645
394.4206
394.19127
393.95705
393.71798
393.47409
393.22544
392.97204
392.71394
392.45118
392.1838
391.91182
391.63529
391.35425
391.06871
390.77873
390.48434
390.18556
389.88244
389.575
389.26328
388.9473
388.62711
388.30273
387.9742
387.64153
387.30477
386.96393
386.61905
386.27016
385.91728
385.56044
385.19965
384.83496
384.46638
384.09393
383.71764
383.33752
382.95361
382.56591
382.17445
381.77924
381.38031
380.97766
380.57131
380.16129
379.74759
379.33024
378.90924
378.4846
378.05633
377.62445
377.18895
376.74984
376.30713
375.86082
375.41092
374.95741
374.50031
373.41286
374.23693
375.05617
375.86761
376.66858
377.45685
378.23055
378.98824
379.72885
380.45163
381.15608
381.84195
382.50914
383.1577
383.78779
384.39965
384.99355
385.56984
386.12886
386.67098
387.19659
387.70607
388.1998
388.67814
389.14148
389.59016
390.02452
390.44492
390.85166
391.24506
391.62542
391.99303
392.34816
392.69108
393.02205
393.34131
393.64909
393.94563
394.23113
394.50581
394.76986
395.02348
395.26686
395.50016
395.72356
395.93722
396.14131
396.33597
396.52135
396.69759
396.86483
397.02319
397.17281
397.31382
397.44631
397.57042
397.68625
397.79392
397.89351
397.98514
398.06891
398.14489
398.2132
398.27392
398.32713
398.37292
398.41137
398.44257
398.46658
398.48349
398.49336
398.49628
398.49231
398.48151
398.46397
398.43973
398.40888
398.37146
398.32754
398.27719
398.22045
398.1574
398.08807
398.01254
397.93086
397.84307
397.74924
397.64941
397.54363
397.43197
397.31446
397.19115
397.0621
396.92735
396.78695
396.64094
396.48937
396.33229
396.16975
396.00177
395.82842
395.64973
395.46575
395.27651
395.08207
394.88246
394.67772
394.46789
394.25303
394.03315
393.80832
393.57856
393.34391
393.10442
392.86011
392.61104
392.35723
392.09873
391.83557
391.56779
391.29542
391.01851
390.73708
390.45117
390.16081
389.86605
389.56691
389.26343
388.95564
388.64357
388.32726
388.00674
387.68203
387.35317
387.02019
386.68312
386.34198
385.99681
385.64764
385.29448
384.93736
384.57632
384.21137
383.84254
383.46986
383.09334
382.71301
382.32888
381.94098
381.54933
381.15395
380.75484
380.35204
379.94555
379.53538
379.12156
378.70409
378.28299
377.85826
377.42992
376.99797
376.56242
376.12327
375.68053
375.23421
374.7843
374.33081
373.87374
373.39522
374.18429
374.96926
375.74758
376.51693
377.27529
378.02095
378.75252
379.46892
380.16933
380.85317
381.52008
382.16985
382.80239
383.41775
384.01604
384.59745
385.16221
385.71058
386.24285
386.75932
387.26032
387.74615
388.21715
388.67363
389.11589
389.54426
389.95903
390.3605
390.74893
391.12462
391.48782
391.8388
392.17779
392.50504
392.82077
393.12521
393.41857
393.70106
393.97287
394.23419
394.4852
394.72609
394.95701
395.17814
395.38963
395.59163
395.78429
395.96776
396.14216
396.30763
396.4643
396.61229
396.75171
396.8827
397.00534
397.11976
397.22606
397.32434
397.4147
397.49723
397.57203
397.63918
397.69878
397.7509
397.79564
397.83307
397.86326
397.88631
397.90227
397.91123
397.91325
397.90841
397.89677
397.87839
397.85335
397.8217
397.78351
397.73884
397.68774
397.63028
397.56651
397.49649
397.42028
397.33792
397.24947
397.15499
397.05452
396.94812
396.83584
396.71772
396.59382
396.46418
396.32885
396.18787
396.0413
395.88918
395.73155
395.56846
395.39995
395.22606
395.04685
394.86235
394.6726
394.47765
394.27753
394.0723
393.86198
393.64663
393.42628
393.20096
392.97073
392.73562
392.49566
392.2509
392.00138
391.74712
391.48818
391.22458
390.95637
390.68357
390.40623
390.12438
389.83806
389.5473
389.25214
388.9526
388.64873
388.34056
388.02811
387.71143
387.39054
387.06548
386.73627
386.40295
386.06554
385.72407
385.37858
385.02909
384.67563
384.31822
383.95689
383.59166
383.22257
382.84962
382.47285
382.09228
381.70793
381.31981
380.92795
380.53237
380.13308
379.7301
379.32345
378.91314
378.49918
378.08158
377.66037
377.23554
376.80711
376.37509
375.93948
375.50029
375.05752
374.61118
374.16127
373.70779
373.25075
373.37898
374.13575
374.889
375.63652
376.37627
377.10643
377.82543
378.53197
379.22497
379.90359
380.56721
381.21537
381.84778
382.46427
383.06478
383.64933
384.21801
384.77097
385.3084
385.8305
386.33753
386.82972
387.30734
387.77067
388.21998
388.65553
389.0776
389.48646
389.88236
390.26556
390.63631
390.99485
391.34142
391.67624
391.99954
392.31153
392.61242
392.9024
393.18167
393.45042
393.70882
393.95705
394.19527
394.42366
394.64236
394.85152
395.05129
395.24182
395.42323
395.59566
395.75924
395.91409
396.06032
396.19806
396.32741
396.44849
396.5614
396.66623
396.7631
396.85209
396.93329
397.00681
397.07272
397.13111
397.18206
397.22566
397.26199
397.29112
397.31312
397.32807
397.33604
397.3371
397.33131
397.31876
397.29949
397.27357
397.24107
397.20204
397.15655
397.10466
397.04641
396.98188
396.9111
396.83415
396.75107
396.66191
396.56673
396.46558
396.3585
396.24555
396.12678
396.00223
395.87195
395.73599
395.5944
395.44721
395.29449
395.13626
394.97258
394.80349
394.62904
394.44925
394.26419
394.07389
393.87839
393.67773
393.47196
393.26111
393.04523
392.82436
392.59853
392.36779
392.13217
391.89171
391.64645
391.39644
391.1417
390.88228
390.6182
390.34952
390.07626
389.79846
389.51616
389.2294
388.93819
388.6426
388.34263
388.03834
387.72975
387.41689
387.09981
386.77852
386.45307
386.12348
385.78979
385.45201
385.11019
384.76435
384.41452
384.06073
383.70299
383.34135
382.97582
382.60644
382.23321
381.85617
381.47534
381.09073
380.70238
380.3103
379.9145
379.51501
379.11184
378.70501
378.29454
377.88043
377.4627
377.04136
376.61642
376.1879
375.7558
375.32012
374.88088
374.43808
373.99172
373.54181
373.08834
372.63133
373.36392
374.09072
374.81447
375.53323
376.24519
376.94872
377.64239
378.32496
378.99539
379.65285
380.29669
380.9264
381.54163
382.14212
382.72776
383.29847
383.85429
384.39527
384.92154
385.43324
385.93056
386.41369
386.88283
387.33822
387.78009
388.20865
388.62416
389.02684
389.41692
389.79463
390.1602
390.51385
390.85578
391.18622
391.50535
391.81339
392.11052
392.39693
392.6728
392.93831
393.19362
393.4389
393.6743
393.89999
394.11611
394.3228
394.5202
394.70845
394.88768
395.05802
395.21958
395.37248
395.51685
395.65279
395.78041
395.89981
396.0111
396.11437
396.20972
396.29725
396.37704
396.44919
396.51377
396.57087
396.62058
396.66297
396.69811
396.72609
396.74698
396.76084
396.76775
396.76778
396.761
396.74746
396.72723
396.70038
396.66696
396.62704
396.58067
396.52792
396.46884
396.40348
396.3319
396.25415
396.17029
396.08037
395.98444
395.88255
395.77475
395.66108
395.5416
395.41636
395.2854
395.14877
395.00651
394.85867
394.7053
394.54643
394.38212
394.21241
394.03733
393.85694
393.67128
393.48038
393.28429
393.08304
392.87669
392.66528
392.44883
392.22739
392.00101
391.76972
391.53355
391.29256
391.04677
390.79623
390.54097
390.28102
390.01644
389.74725
389.47349
389.1952
388.91241
388.62516
388.33349
388.03742
387.73699
387.43224
387.1232
386.80991
386.49239
386.17067
385.8448
385.5148
385.1807
384.84253
384.50033
384.15411
383.80391
383.44976
383.09168
382.7297
382.36385
381.99414
381.62061
381.24328
380.86217
380.47729
380.08868
379.69635
379.30032
378.90062
378.49724
378.09022
377.67957
377.2653
376.84742
376.42595
376.00089
375.57227
375.14007
374.70433
374.26503
373.82219
373.37581
372.9259
372.47245
372.01546
373.34988
374.04874
374.74493
375.43673
376.12254
376.80088
377.47045
378.13007
378.77878
379.41575
380.04031
380.65192
381.2502
381.83484
382.40566
382.96252
383.5054
384.03429
384.54925
385.05037
385.53779
386.01163
386.47208
386.9193
387.35349
387.77484
388.18355
388.57982
388.96385
389.33586
389.69602
390.04456
390.38165
390.70749
391.02227
391.32616
391.61935
391.90201
392.1743
392.4364
392.68845
392.93062
393.16305
393.3859
393.59929
393.80337
393.99827
394.18411
394.36103
394.52915
394.68857
394.83942
394.98181
395.11584
395.24162
395.35924
395.46881
395.57043
395.66418
395.75015
395.82844
395.89913
395.9623
396.01804
396.06641
396.10751
396.1414
396.16816
396.18786
396.20057
396.20635
396.20529
396.19743
396.18284
396.1616
396.13375
396.09936
396.05848
396.01118
395.95752
395.89754
395.8313
395.75886
395.68027
395.59558
395.50485
395.40811
395.30543
395.19685
395.08243
394.9622
394.83622
394.70452
394.56717
394.4242
394.27566
394.1216
393.96205
393.79707
393.62668
393.45095
393.26991
393.08359
392.89206
392.69533
392.49347
392.2865
392.07447
391.85741
391.63538
391.4084
391.17652
390.93977
390.6982
390.45184
390.20073
389.94491
389.68441
389.41928
389.14955
388.87526
388.59644
388.31312
388.02536
387.73317
387.4366
387.13567
386.83043
386.52091
386.20714
385.88915
385.56698
385.24066
384.91022
384.57569
384.23709
383.89447
383.54785
383.19726
382.84272
382.48427
382.12193
381.75572
381.38568
381.01182
380.63417
380.25275
379.86759
379.4787
379.08611
378.68983
378.28989
377.88629
377.47906
377.06822
376.65377
376.23573
375.81412
375.38893
374.9602
374.52791
374.09209
373.65273
373.20985
372.76344
372.31352
371.86008
371.40313
373.33675
374.00945
374.67978
375.34623
376.00736
376.66183
377.30844
377.94611
378.57392
379.19105
379.79686
380.39079
380.97241
381.5414
382.0975
382.64057
383.17049
383.68723
384.19079
384.68122
385.15858
385.62298
386.07455
386.51341
386.93973
387.35366
387.75537
388.14503
388.52282
388.88891
389.24348
389.58671
389.91877
390.23983
390.55006
390.84963
391.13871
391.41744
391.686
391.94453
392.19317
392.43208
392.66139
392.88125
393.09178
393.29311
393.48538
393.6687
393.84319
394.00896
394.16614
394.31483
394.45512
394.58714
394.71098
394.82673
394.93449
395.03435
395.12641
395.21074
395.28744
395.35659
395.41827
395.47256
395.51953
395.55926
395.59182
395.61729
395.63573
395.64722
395.65181
395.64958
395.64058
395.62489
395.60256
395.57366
395.53823
395.49635
395.44806
395.39343
395.3325
395.26533
395.19198
395.11249
395.02692
394.93532
394.83773
394.73421
394.62481
394.50957
394.38855
394.26178
394.12931
393.99119
393.84747
393.69818
393.54338
393.38311
393.2174
393.04631
392.86987
392.68814
392.50114
392.30892
392.11152
391.90899
391.70137
391.48868
391.27098
391.04831
390.82069
390.58818
390.35082
390.10863
389.86166
389.60995
389.35353
389.09244
388.82673
388.55642
388.28155
388.00216
387.71829
387.42997
387.13724
386.84013
386.53867
386.23291
385.92287
385.60859
385.29011
384.96745
384.64064
384.30972
383.97473
383.63568
383.29262
382.94556
382.59455
382.2396
381.88075
381.51802
381.15143
380.78102
380.40681
380.02883
379.64708
379.26161
378.87242
378.47955
378.083
377.68281
377.27897
376.87152
376.46047
376.04584
375.62762
375.20585
374.78053
374.35167
373.91928
373.48338
373.04395
372.60102
372.15459
371.70466
371.25123
370.79431
373.32441
373.97252
374.61852
375.26105
375.89883
376.53064
377.15537
377.77202
378.37972
378.97769
379.56529
380.14196
380.70725
381.26082
381.80239
382.33175
382.84877
383.35335
383.84547
384.32512
384.79233
385.24717
385.68971
386.12007
386.53836
386.9447
387.33924
387.72212
388.09348
388.45348
388.80228
389.14003
389.46688
389.78299
390.08851
390.3836
390.6684
390.94306
391.20773
391.46253
391.70763
391.94313
392.16919
392.38593
392.59347
392.79193
392.98144
393.16211
393.33406
393.49738
393.6522
393.79861
393.93672
394.06663
394.18842
394.3022
394.40806
394.50608
394.59636
394.67897
394.754
394.82153
394.88163
394.93439
394.97988
395.01817
395.04934
395.07344
395.09056
395.10075
395.10409
395.10063
395.09044
395.07358
395.05011
395.02009
394.98357
394.94062
394.89129
394.83563
394.7737
394.70554
394.63122
394.55079
394.46429
394.37177
394.27328
394.16888
394.05861