/*--------------------------------*- C++ -*----------------------------------*\
| =========                 |                                                 |
| \\      /  F ield         | OpenFOAM: The Open Source CFD Toolbox           |
|  \\    /   O peration     | Version:  v1606+                                |
|   \\  /    A nd           | Web:      www.OpenFOAM.com                      |
|    \\/     M anipulation  |                                                 |
\*---------------------------------------------------------------------------*/
FoamFile
{
    version     2.0;
    format      ascii;
    class       volScalarField;
    location    "0.05/Shaded";
    object      T;
}
// * * * * * * * * * * * * * * * * * * * * * * * * * * * * * * * * * * * * * //

dimensions      [0 0 0 1 0 0 0];

internalField   nonuniform List<scalar> 
4320
(
346.74516
346.27865
345.80845
345.3349
344.85849
344.37965
343.89872
343.41596
342.93157
342.44571
341.95854
341.47017
340.98069
340.4902
339.99876
339.50644
339.01328
338.51933
338.02462
337.52917
337.03301
336.53613
336.03856
335.54028
335.04129
334.54158
334.04113
333.53993
333.03795
332.53516
332.03152
331.52702
331.0216
330.51522
330.00785
329.49944
328.98995
328.47931
327.96749
327.45444
326.94009
326.4244
325.90731
325.38877
324.86872
324.34711
323.82389
323.29899
322.77236
322.24395
321.71371
321.18157
320.64749
320.11141
319.57328
319.03304
318.49065
317.94604
317.39917
316.84997
316.29838
315.74434
315.18778
314.62861
314.06674
313.50202
312.9343
312.36329
311.78855
311.20913
310.62267
310.02163
346.2351
345.75942
345.28264
344.80406
344.32359
343.84134
343.35747
342.87212
342.38546
341.89759
341.40866
340.91874
340.42793
339.93631
339.44394
338.95087
338.45715
337.96281
337.46789
336.97241
336.47637
335.9798
335.48269
334.98503
334.48682
333.98804
333.48868
332.98871
332.4881
331.98683
331.48485
330.98213
330.47862
329.97429
329.46908
328.96295
328.45584
327.9477
327.43848
326.92812
326.41657
325.90376
325.38963
324.87413
324.3572
323.83876
323.31877
322.79716
322.27387
321.74883
321.22198
320.69327
320.16261
319.62996
319.09524
318.55838
318.01932
317.47798
316.93428
316.38813
315.83945
315.28812
314.734
314.17695
313.61676
313.05316
312.48575
311.91397
311.33685
310.75272
310.15848
309.54818
345.72283
345.2402
344.75748
344.27395
343.78931
343.30348
342.81649
342.32841
341.83933
341.34934
340.85852
340.36697
339.87475
339.38193
338.88856
338.39469
337.90037
337.40561
336.91046
336.41492
335.91901
335.42273
334.92608
334.42905
333.93164
333.43381
332.93556
332.43685
331.93765
331.43792
330.93764
330.43674
329.9352
329.43295
328.92996
328.42616
327.92149
327.41591
326.90935
326.40175
325.89305
325.38318
324.87208
324.35968
323.84592
323.33073
322.81404
322.29578
321.77588
321.25428
320.7309
320.20566
319.6785
319.14934
318.6181
318.08469
317.54904
317.01104
316.4706
315.92761
315.38194
314.83343
314.28192
313.72719
313.16895
312.60683
312.04032
311.46869
310.89083
310.3051
309.70896
309.09891
345.20818
344.71994
344.23199
343.74379
343.25504
342.76559
342.2754
341.78448
341.29289
340.80067
340.3079
339.81463
339.32092
338.82684
338.33242
337.83771
337.34274
336.84754
336.35213
335.85653
335.36073
334.86475
334.36857
333.87218
333.37558
332.87873
332.38161
331.88419
331.38644
330.88831
330.38975
329.89074
329.3912
328.8911
328.39037
327.88896
327.3868
326.88383
326.38
325.87522
325.36944
324.86258
324.35457
323.84535
323.33483
322.82295
322.30964
321.7948
321.27838
320.76028
320.24044
319.71876
319.19517
318.66958
318.1419
317.61204
317.07988
316.54533
316.00826
315.46855
314.92603
314.38053
313.83184
313.27969
312.72377
312.16364
311.59875
311.02834
310.4514
309.86654
309.27199
308.66574
344.69133
344.19823
343.70559
343.21302
342.72029
342.22725
341.73383
341.24003
340.74585
340.25133
339.75652
339.26147
338.76622
338.27082
337.77531
337.27972
336.78407
336.28841
335.79273
335.29704
334.80136
334.30568
333.80998
333.31425
332.81848
332.32263
331.82668
331.33059
330.83432
330.33783
329.84106
329.34397
328.84651
328.3486
327.8502
327.35124
326.85166
326.35137
325.85033
325.34845
324.84566
324.34188
323.83704
323.33107
322.82388
322.31539
321.80552
321.29419
320.78132
320.26681
319.75059
319.23256
318.71263
318.19071
317.66668
317.14046
316.61191
316.08093
315.54737
315.01108
314.47189
313.92961
313.38399
312.83476
312.28156
311.72397
311.16144
310.59327
310.0186
309.43637
308.84537
308.24445
344.17245
343.67493
343.17793
342.68123
342.18465
341.68808
341.19144
340.69471
340.19791
339.70104
339.20414
338.70725
338.21041
337.71365
337.217
336.7205
336.22416
335.728
335.23204
334.73628
334.24071
333.74533
333.25013
332.75508
332.26017
331.76535
331.27061
330.77589
330.28115
329.78634
329.29142
328.79631
328.30098
327.80534
327.30933
326.81289
326.31595
325.81843
325.32025
324.82134
324.32162
323.82101
323.31942
322.81678
322.31299
321.80798
321.30165
320.79391
320.28468
319.77385
319.26135
318.74706
318.23089
317.71273
317.19247
316.67
316.14519
315.6179
315.088
314.55531
314.01965
313.48081
312.93855
312.39257
311.84253
311.28802
310.72852
310.16346
309.5921
309.01368
308.42737
307.83248
343.65163
343.14991
342.64879
342.14813
341.64781
341.14775
340.6479
340.14825
339.64878
339.14952
338.65049
338.15172
337.65324
337.15508
336.65727
336.15983
335.66277
335.16612
334.66986
334.17402
333.67857
333.18352
332.68883
332.19449
331.70046
331.20672
330.71322
330.21992
329.72676
329.2337
328.74067
328.24762
327.75447
327.26117
326.76763
326.27379
325.77957
325.28488
324.78965
324.2938
323.79723
323.29987
322.80162
322.3024
321.80211
321.30066
320.79796
320.29391
319.78842
319.28137
318.77268
318.26224
317.74993
317.23565
316.71928
316.20069
315.67975
315.15631
314.63023
314.10132
313.5694
313.03425
312.49563
311.95324
311.40677
310.85583
310.29997
309.73869
309.17143
308.59761
308.01668
307.4282
343.1289
342.62311
342.11799
341.61346
341.10948
340.60598
340.10294
339.60034
339.0982
338.59651
338.09532
337.59463
337.09448
336.59489
336.09589
335.59748
335.0997
334.60253
334.10599
333.61007
333.11476
332.62004
332.12589
331.63229
331.13919
330.64656
330.15435
329.66251
329.171
328.67974
328.18868
327.69774
327.20686
326.71597
326.22498
325.73382
325.2424
324.75063
324.25844
323.76573
323.27241
322.7784
322.28358
321.78787
321.29118
320.7934
320.29442
319.79416
319.29251
318.78935
318.28458
317.7781
317.26977
316.75949
316.24713
315.73255
315.21563
314.6962
314.1741
313.64917
313.1212
312.58999
312.05528
311.51682
310.97429
310.42735
309.87562
309.31868
308.7561
308.18743
307.6123
307.03041
342.60425
342.09443
341.58537
341.07704
340.56943
340.06251
339.55628
339.05073
338.54588
338.04175
337.53835
337.03572
336.53387
336.03283
335.53261
335.03323
334.5347
334.03702
333.54019
333.0442
332.54904
332.05469
331.56111
331.06828
330.57615
330.08468
329.59381
329.10351
328.61369
328.12431
327.63528
327.14654
326.658
326.1696
325.68124
325.19284
324.70432
324.21557
323.72651
323.23704
322.74707
322.25649
321.76521
321.27312
320.78013
320.28611
319.79098
319.29461
318.79691
318.29775
317.79703
317.29461
316.79039
316.28424
315.77603
315.26561
314.75284
314.23758
313.71965
313.19889
312.67509
312.14805
311.61754
311.08329
310.54505
310.00249
309.4553
308.90314
308.34565
307.78251
307.21345
306.63828
342.07762
341.56377
341.05078
340.53867
340.02743
339.5171
339.00766
338.49915
337.99157
337.48496
336.97934
336.47473
335.97115
335.46863
334.96718
334.46682
333.96754
333.46935
332.97224
332.4762
331.98122
331.48725
330.99428
330.50226
330.01114
329.52089
329.03143
328.54271
328.05467
327.56723
327.08032
326.59385
326.10775
325.62192
325.13629
324.65075
324.16521
323.67958
323.19376
322.70763
322.22111
321.73408
321.24644
320.75808
320.26889
319.77876
319.28757
318.79522
318.30159
317.80655
317.30998
316.81177
316.31179
315.8099
315.30596
314.79985
314.29141
313.78048
313.2669
312.75049
312.23107
311.70843
311.18236
310.65262
310.11896
309.58111
309.0388
308.49174
307.93966
307.38232
306.81952
306.25112
341.54893
341.03102
340.51408
339.99815
339.48329
338.96951
338.45685
337.94534
337.43501
336.92589
336.41801
335.9114
335.40607
334.90205
334.39936
333.898
333.39797
332.89928
332.40191
331.90584
331.41105
330.91751
330.42518
329.93402
329.44398
328.955
328.46701
327.97996
327.49376
327.00834
326.52363
326.03952
325.55595
325.0728
324.58998
324.10741
323.62496
323.14255
322.66007
322.1774
321.69443
321.21107
320.72718
320.24266
319.7574
319.27127
318.78416
318.29594
317.80649
317.3157
316.82343
316.32955
315.83393
315.33644
314.83694
314.33528
313.83132
313.32489
312.81583
312.30397
311.78913
311.27112
310.74972
310.22473
309.69591
309.16305
308.62589
308.08421
307.53779
306.98644
306.43002
305.86843
341.01809
340.49604
339.97509
339.45531
338.93677
338.41951
337.90359
337.38905
336.87593
336.36427
335.8541
335.34546
334.83836
334.33283
333.82888
333.32652
332.82575
332.32656
331.82894
331.33287
330.83831
330.34524
329.85361
329.36336
328.87445
328.3868
327.90036
327.41504
326.93078
326.44748
325.96505
325.4834
325.00245
324.52208
324.04219
323.56268
323.08344
322.60437
322.12533
321.64623
321.16695
320.68736
320.20736
319.72681
319.24559
318.76359
318.28067
317.79672
317.31159
316.82517
316.33733
315.84792
315.35681
314.86387
314.36894
313.87189
313.37256
312.8708
312.36644
311.85932
311.34925
310.83606
310.31956
309.79954
309.2758
308.74815
308.21638
307.68029
307.13972
306.59451
306.04455
305.48978
340.48497
339.95869
339.43365
338.90995
338.38767
337.86688
337.34765
336.83003
336.31408
335.79983
335.28734
334.77663
334.26774
333.76068
333.25547
332.75211
332.2506
331.75093
331.25309
330.75704
330.26276
329.7702
329.27931
328.79004
328.30233
327.8161
327.33128
326.84778
326.36554
325.88444
325.4044
324.92532
324.44709
323.96961
323.49276
323.01644
322.54052
322.0649
321.58945
321.11404
320.63856
320.16288
319.68688
319.21043
318.73339
318.25565
317.77706
317.2975
316.81684
316.33493
315.85165
315.36685
314.88039
314.39214
313.90195
313.40966
312.91513
312.4182
311.91871
311.4165
310.91139
310.40322
309.8918
309.37696
308.85851
308.33627
307.81007
307.27976
306.74517
306.20621
305.66277
305.11483
339.94944
339.41881
338.88958
338.36187
337.83577
337.31138
336.78877
336.26801
335.74917
335.2323
334.71745
334.20465
333.69394
333.18534
332.67886
332.1745
331.67227
331.17214
330.6741
330.17812
329.68415
329.19215
328.70207
328.21384
327.7274
327.24266
326.75955
326.27798
325.79785
325.31906
324.84152
324.36511
323.88973
323.41525
322.94156
322.46855
321.99608
321.52404
321.05229
320.58071
320.10917
319.63753
319.16567
318.69345
318.22073
317.74738
317.27326
316.79824
316.32218
315.84493
315.36635
314.88631
314.40466
313.92125
313.43594
312.94857
312.459
311.96706
311.47261
310.97548
310.47551
309.97253
309.46639
308.9569
308.44391
307.92726
307.4068
306.8824
306.35392
305.82128
305.28442
304.7433
339.41132
338.87621
338.34267
337.81084
337.28084
336.75275
336.22669
335.70273
335.18095
334.6614
334.14415
333.62923
333.11667
332.60651
332.09876
331.59341
331.09046
330.5899
330.09169
329.59582
329.10222
328.61084
328.12164
327.63453
327.14944
326.66628
326.18498
325.70542
325.22751
324.75115
324.27622
323.8026
323.33018
322.85884
322.38844
321.91887
321.44998
320.98166
320.51375
320.04614
319.57867
319.11122
318.64364
318.17579
317.70754
317.23873
316.76923
316.29889
315.82757
315.35512
314.88141
314.40627
313.92957
313.45116
312.97088
312.48859
312.00414
311.51736
311.02811
310.53623
310.04156
309.54395
309.04324
308.53927
308.03191
307.521
307.00642
306.48804
305.96577
305.43952
304.90926
304.37495
338.87046
338.33071
337.79273
337.25666
336.72263
336.19075
335.66115
335.13391
334.60911
334.08683
333.56713
333.05006
332.53564
332.0239
331.51487
331.00854
330.50489
330.00393
329.5056
329.00987
328.5167
328.02602
327.53776
327.05185
326.5682
326.08673
325.60733
325.1299
324.65433
324.18051
323.70831
323.23762
322.76829
322.30022
321.83325
321.36725
320.90209
320.43763
319.97372
319.51021
319.04697
318.58385
318.1207
317.65738
317.19374
316.72962
316.26488
315.79938
315.33296
314.86547
314.39677
313.92669
313.4551
312.98184
312.50676
312.0297
311.55052
311.06906
310.58518
310.0987
309.6095
309.11741
308.62229
308.124
307.6224
307.11737
306.60877
306.09653
305.58054
305.06074
304.5371
304.00959
338.32666
337.78211
337.23953
336.69907
336.16089
335.62511
335.09187
334.56126
334.03338
333.5083
332.9861
332.46683
331.95052
331.4372
330.92689
330.41958
329.91527
329.41393
328.91552
328.42
327.92732
327.4374
326.95017
326.46556
325.98345
325.50377
325.02639
324.5512
324.0781
323.60694
323.13761
322.66998
322.20389
321.73923
321.27583
320.81357
320.35228
319.89183
319.43206
318.97282
318.51396
318.05533
317.59677
317.13813
316.67926
316.21999
315.76018
315.29967
314.83831
314.37593
313.9124
313.44754
312.98122
312.51327
312.04354
311.57188
311.09813
310.62214
310.14377
309.66287
309.17928
308.69286
308.20348
307.711
307.2153
306.71626
306.21376
305.70774
305.19809
304.68479
304.16778
303.64706
337.77971
337.23018
336.68282
336.13782
335.59535
335.05555
334.51855
333.98447
333.45342
332.92548
332.40073
331.87923
331.361
330.84609
330.3345
329.82623
329.32127
328.81959
328.32116
327.82591
327.33379
326.84472
326.35862
325.87539
325.39494
324.91715
324.44192
323.96911
323.4986
323.03025
322.56393
322.0995
321.63681
321.1757
320.71604
320.25766
319.80041
319.34413
318.88867
318.43386
317.97955
317.52557
317.07176
316.61797
316.16403
315.70977
315.25505
314.7997
314.34356
313.88646
313.42826
312.96879
312.50789
312.04541
311.58119
311.11508
310.64693
310.17657
309.70387
309.22868
308.75086
308.27026
307.78675
307.30021
306.81053
306.31758
305.82128
305.32155
304.81831
304.31153
303.80117
303.28722
337.2294
336.67468
336.12236
335.57265
335.02573
334.48176
333.94088
333.40323
332.86892
332.33805
331.81069
331.2869
330.76674
330.25022
329.73735
329.22814
328.72257
328.22061
327.7222
327.22729
326.73581
326.24768
325.7628
325.28108
324.8024
324.32664
323.85368
323.38338
322.91561
322.45023
321.98707
321.526
321.06686
320.60948
320.15371
319.69938
319.24634
318.79441
318.34342
317.89321
317.44362
316.99446
316.54558
316.09681
315.64797
315.1989
314.74944
314.29942
313.84866
313.39702
312.94431
312.49039
312.03508
311.57824
311.11969
310.65929
310.19689
309.73232
309.26545
308.79612
308.3242
307.84955
307.37205
306.89158
306.40802
305.92127
305.43125
304.93788
304.44109
303.94086
303.43716
302.92997
336.6755
336.11536
335.55787
335.00326
334.45172
333.90343
333.35854
332.81721
332.27954
331.74565
331.21562
330.68951
330.16738
329.64924
329.13511
328.62498
328.11884
327.61663
327.11832
326.62383
326.13308
325.64599
325.16245
324.68235
324.20557
323.73197
323.26143
322.7938
322.32892
321.86665
321.40683
320.94929
320.49386
320.04039
319.58869
319.1386
318.68993
318.24252
317.79619
317.35077
316.90607
316.46192
316.01815
315.57457
315.13102
314.68732
314.24329
313.79877
313.35358
312.90755
312.46052
312.01231
311.56277
311.11173
310.65902
310.20449
309.74799
309.28937
308.82847
308.36515
307.89928
307.43072
306.95935
306.48505
306.00772
305.52726
305.0436
304.55665
304.06636
303.57271
303.07566
302.57523
336.11773
335.55194
334.98907
334.42935
333.87301
333.32023
332.77118
332.22603
331.68491
331.14792
330.61515
330.08668
329.56255
329.04279
328.5274
328.01638
327.5097
327.00732
326.50917
326.01519
325.52528
325.03934
324.55725
324.07891
323.60417
323.13289
322.66492
322.20011
321.7383
321.27932
320.823
320.36917
319.91765
319.46826
319.02082
318.57514
318.13105
317.68835
317.24687
316.80641
316.3668
315.92785
315.48937
315.05118
314.6131
314.17495
313.73654
313.2977
312.85826
312.41803
311.97685
311.53453
311.09092
310.64585
310.19915
309.75066
309.30023
308.84769
308.39292
307.93575
307.47606
307.01372
306.5486
306.08059
305.6096
305.13551
304.65827
304.1778
303.69406
303.20701
302.71662
302.22292
335.55584
334.98413
334.41563
333.85059
333.28924
332.73179
332.17844
331.62934
331.08464
330.54446
330.00889
329.47801
328.95186
328.43046
327.91384
327.40196
326.8948
326.39231
325.89442
325.40103
324.91207
324.4274
323.94691
323.47046
322.99791
322.52911
322.06388
321.60208
321.14351
320.688
320.23538
319.78545
319.33802
318.89291
318.44992
318.00887
317.56954
317.13176
316.69532
316.26004
315.82571
315.39215
314.95916
314.52655
314.09414
313.66173
313.22913
312.79617
312.36266
311.92841
311.49326
311.05702
310.61952
310.18059
309.74006
309.29777
308.85357
308.40729
307.95878
307.50792
307.05455
306.59855
306.1398
305.67818
305.21361
304.74599
304.27524
303.80131
303.32414
302.84371
302.35999
301.873
334.98953
334.41162
333.83723
333.26662
332.70005
332.13774
331.57991
331.02672
330.47833
329.93487
329.39642
328.86308
328.33489
327.81186
327.29402
326.78132
326.27375
325.77122
325.27367
324.781
324.2931
323.80985
323.3311
322.85671
322.38652
321.92036
321.45807
320.99944
320.54431
320.09248
319.64375
319.19792
318.7548
318.31418
317.87586
317.43962
317.00528
316.57262
316.14144
315.71153
315.2827
314.85474
314.42744
314.00062
313.57407
313.1476
312.72102
312.29413
311.86674
311.43867
311.00973
310.57975
310.14854
309.71593
309.28175
308.84583
308.40801
307.96814
307.52606
307.08163
306.63472
306.18519
305.73292
305.27781
304.81976
304.35868
303.89449
303.42714
302.95658
302.48278
302.00574
301.52544
334.41849
333.83408
333.25351
332.67707
332.10505
331.53768
330.97518
330.41775
329.86554
329.31869
328.77731
328.24146
327.7112
327.18655
326.66751
326.15405
325.64612
325.14365
324.64656
324.15472
323.66803
323.18633
322.70949
322.23733
321.76968
321.30636
320.84719
320.39196
319.94047
319.49252
319.0479
318.60639
318.16779
317.73188
317.29844
316.86726
316.43812
316.0108
315.58509
315.16078
314.73766
314.31551
313.89413
313.4733
313.05283
312.63251
312.21214
311.79152
311.37046
310.94876
310.52623
310.10269
309.67796
309.25185
308.82419
308.39482
307.96355
307.53025
307.09475
306.6569
306.21658
305.77364
305.32798
304.87947
304.42803
303.97357
303.516
303.05529
302.59137
302.12423
301.65385
301.18023
333.84238
333.25113
332.66408
332.08154
331.50381
330.93115
330.3638
329.80196
329.2458
328.69547
328.15107
327.61267
327.08033
326.55407
326.03387
325.5197
325.0115
324.50919
324.01266
323.5218
323.03646
322.5565
322.08173
321.61199
321.14708
320.68681
320.23097
319.77935
319.33173
318.88789
318.44761
318.01066
317.57681
317.14584
316.71752
316.29162
315.86791
315.44617
315.02617
314.60768
314.1905
313.77439
313.35914
312.94453
312.53035
312.1164
311.70245
311.28832
310.87378
310.45866
310.04274
309.62584
309.20778
308.78836
308.3674
307.94474
307.5202
307.09362
306.66485
306.23373
305.80014
305.36392
304.92497
304.48318
304.03844
303.59067
303.1398
302.68577
302.22853
301.76806
301.30434
300.83739
333.26084
332.6624
332.06854
331.4796
330.89589
330.31771
329.74529
329.17887
328.61863
328.0647
327.51721
326.97622
326.44179
325.91393
325.39262
324.87781
324.36943
323.86739
323.37158
322.88184
322.39803
321.91997
321.44748
320.98037
320.51842
320.06142
319.60914
319.16136
318.71785
318.27836
317.84266
317.41051
316.98166
316.55588
316.13293
315.71255
315.29452
314.8786
314.46454
314.05212
313.64111
313.23128
312.82239
312.41423
312.00658
311.59921
311.19191
310.78447
310.37668
309.96834
309.55924
309.14918
308.73798
308.32544
307.91137
307.4956
307.07796
306.65828
306.23639
305.81215
305.38542
304.95606
304.52394
304.08896
303.65102
303.21002
302.7659
302.3186
301.86806
301.41428
300.95723
300.49692
332.67348
332.06747
331.46644
330.87077
330.2808
329.69683
329.11914
328.54796
327.98348
327.42585
326.87519
326.33158
325.79505
325.26562
324.74325
324.22788
323.71944
323.21781
322.72285
322.23441
321.75231
321.27637
320.80637
320.34211
319.88335
319.42986
318.9814
318.53771
318.09856
317.66369
317.23283
316.80574
316.38216
315.96183
315.54449
315.12991
314.71781
314.30796
313.9001
313.494
313.08941
312.68609
312.28381
311.88234
311.48144
311.08089
310.68047
310.27995
309.87913
309.47779
309.07571
308.6727
308.26856
307.8631
307.45611
307.04742
306.63685
306.22423
305.80939
305.39218
304.97246
304.55007
304.12491
303.69685
303.26579
302.83165
302.39434
301.95382
301.51003
301.06294
300.61255
300.15886
332.07989
331.46589
330.85731
330.25456
329.65801
329.06798
328.48478
327.90865
327.33978
326.77834
326.22445
325.67818
325.13956
324.60859
324.08523
323.56941
323.06103
322.55995
322.06603
321.57907
321.0989
320.62529
320.15803
319.69686
319.24155
318.79183
318.34745
317.90813
317.47362
317.04363
316.6179
316.19614
315.7781
315.3635
314.95206
314.54353
314.13764
313.73413
313.33274
312.93321
312.5353
312.13876
311.74333
311.34879
310.95489
310.5614
310.16809
309.77473
309.3811
308.98698
308.59215
308.1964
307.79954
307.40135
307.00163
306.60021
306.1969
305.79151
305.38389
304.97387
304.56129
304.14602
303.72794
303.30691
302.88283
302.45562
302.02519
301.59149
301.15447
300.7141
300.27037
299.82329
331.47962
330.85717
330.24062
329.63042
329.02695
328.43058
327.84162
327.26033
326.68693
326.12157
325.56437
325.01542
324.47472
323.94227
323.41801
322.90185
322.39367
321.89332
321.40062
320.91537
320.43736
319.96633
319.50205
319.04425
318.59266
318.147
317.70699
317.27234
316.84276
316.41795
315.99763
315.58151
315.1693
314.76072
314.35547
313.95329
313.55388
313.15699
312.76234
312.36966
311.9787
311.58919
311.20088
310.81353
310.42688
310.0407
309.65475
309.26878
308.88258
308.49591
308.10855
307.72029
307.33091
306.9402
306.54797
306.15401
305.75814
305.36017
304.95993
304.55725
304.15198
303.74397
303.33308
302.91919
302.50219
302.08199
301.65851
301.23169
300.80147
300.36783
299.93075
299.49025
330.87218
330.2408
329.61583
328.99776
328.38701
327.78399
327.18901
326.60236
326.02425
325.45486
324.8943
324.34264
323.7999
323.26603
322.74097
322.22462
321.71681
321.21739
320.72614
320.24283
319.76723
319.29906
318.83805
318.38392
317.93635
317.49506
317.05973
316.63005
316.20571
315.78641
315.37182
314.96165
314.55558
314.15332
313.75456
313.35902
312.9664
312.57642
312.18879
311.80325
311.41951
311.03732
310.6564
310.2765
309.89737
309.51875
309.1404
308.76208
308.38354
308.00456
307.62491
307.24436
306.86269
306.47969
306.09514
305.70885
305.32062
304.93025
304.53757
304.1424
303.74459
303.34397
302.94041
302.53378
302.12396
301.71086
301.2944
300.8745
300.45111
300.02422
299.5938
299.15986
330.25705
329.6162
328.98232
328.35594
327.73753
327.12752
326.52624
325.934
325.35104
324.77751
324.21354
323.65917
323.11441
322.57922
322.0535
321.5371
321.02987
320.53159
320.04204
319.56095
319.08805
318.62304
318.16562
317.71546
317.27225
316.83566
316.40535
315.98098
315.56223
315.14875
314.74023
314.33633
313.93674
313.54112
313.14918
312.76059
312.37507
311.9923
311.612
311.23388
310.85766
310.48306
310.10981
309.73765
309.3663
308.99551
308.62503
308.2546
307.88399
307.51295
307.14124
306.76864
306.39491
306.01983
305.64319
305.26478
304.88438
304.50181
304.11687
303.72939
303.33919
302.94612
302.55002
302.15077
301.74824
301.34233
300.93295
300.52003
300.10352
299.68338
299.25961
298.83221
329.63367
328.98275
328.33943
327.70427
327.07778
326.46042
325.85255
325.25451
324.66651
324.08874
323.52131
322.96425
322.41755
321.88115
321.35491
320.83867
320.33224
319.83537
319.34779
318.86921
318.39933
317.93781
317.48432
317.0385
316.60001
316.16847
315.74354
315.32485
314.91204
314.50476
314.10265
313.70538
313.3126
312.92397
312.53917
312.15787
311.77976
311.40453
311.03187
310.66148
310.29308
309.92637
309.56108
309.19693
308.83364
308.47096
308.10861
307.74635
307.38392
307.02107
306.65756
306.29315
305.92759
305.56068
305.19216
304.82184
304.44949
304.07492
303.69792
303.3183
302.93589
302.55052
302.16203
301.77028
301.37515
300.97652
300.5743
300.16842
299.75881
299.34545
298.92832
298.50743
329.00141
328.3398
327.68645
327.04198
326.40696
325.78187
325.16712
324.56302
323.96984
323.38774
322.81681
322.25709
321.70854
321.17106
320.64449
320.12864
319.62327
319.12809
318.64281
318.16709
317.70058
317.24293
316.79374
316.35264
315.91925
315.49316
315.074
314.66136
314.25488
313.85418
313.45887
313.06859
312.68299
312.3017
311.9244
311.55073
311.18037
310.813
310.4483
310.08596
309.72569
309.36718
309.01014
308.6543
308.29936
307.94507
307.59114
307.23731
306.88333
306.52894
306.17388
305.81791
305.46078
305.10226
304.74211
304.38011
304.01603
303.64966
303.28079
302.90922
302.53478
302.15727
301.77654
301.39243
301.00481
300.61356
300.21859
299.8198
299.41714
299.01057
298.60008
298.18568
328.3596
327.68659
327.02258
326.36825
325.72421
325.09099
324.46901
323.85863
323.2601
322.67358
322.09915
321.53683
320.98654
320.44816
319.92149
319.40629
318.90228
318.40914
317.92651
317.45402
316.99129
316.5379
316.09344
315.65748
315.2296
314.80939
314.39641
313.99025
313.59051
313.19678
312.80866
312.42577
312.04772
311.67416
311.30471
310.93904
310.57678
310.21762
309.86121
309.50725
309.15543
308.80543
308.45696
308.10972
307.76344
307.41782
307.07259
306.72749
306.38223
306.03656
305.69022
305.34295
304.9945
304.64463
304.29309
303.93964
303.58405
303.22611
302.86558
302.50227
302.13598
301.76651
301.39369
301.01737
300.63739
300.25363
299.86598
299.47435
299.07868
298.67893
298.27507
297.86712
327.70751
327.02233
326.34696
325.68215
325.02857
324.38679
323.75726
323.14035
322.53631
321.9453
321.36739
320.80255
320.25068
319.71161
319.1851
318.67087
318.16857
317.67784
317.19827
316.72945
316.27093
315.82225
315.38296
314.9526
314.5307
314.11681
313.71047
313.31124
312.91867
312.53234
312.15183
311.77674
311.40665
311.0412
310.68
310.32268
309.96889
309.61829
309.27053
308.92529
308.58224
308.24108
307.90149
307.56318
307.22585
306.88921
306.55298
306.21688
305.88063
305.54397
305.20662
304.86832
304.52882
304.18785
303.84516
303.50052
303.15367
302.80438
302.45242
302.09757
301.73962
301.37838
301.01364
300.64525
300.27305
299.89689
299.51666
299.13226
298.74362
298.3507
297.95347
297.55194
327.04432
326.34612
325.65862
324.98267
324.31899
323.66818
323.03075
322.40706
321.79737
321.20183
320.62047
320.05324
319.5
318.9605
318.43448
317.92157
317.42139
316.93351
316.45746
315.99278
315.53895
315.09549
314.66187
314.23761
313.82219
313.41511
313.01589
312.62405
312.23912
311.86065
311.48819
311.12132
310.75962
310.40268
310.05012
309.70155
309.35661
309.01493
308.67618
308.34
308.00608
307.67408
307.3437
307.01463
306.68657
306.35922
306.03229
305.70549
305.37855
305.05118
304.72311
304.39406
304.06377
303.73198
303.39842
303.06283
302.72496
302.38457
302.04141
301.69524
301.34586
300.99303
300.63656
300.27627
299.91198
299.54355
299.17084
298.79374
298.41219
298.02612
297.63552
297.24038
326.36914
325.65698
324.95653
324.2687
323.5943
322.93398
322.28827
321.65756
321.0421
320.44201
319.85729
319.28785
318.73347
318.19388
317.66871
317.15756
316.65997
316.17543
315.70342
315.2434
314.79482
314.35711
313.92972
313.5121
313.10368
312.70394
312.31236
311.92842
311.55162
311.18148
310.81755
310.45935
310.10647
309.75848
309.41498
309.07556
308.73985
308.40748
308.07809
307.75134
307.42689
307.10441
306.78357
306.46407
306.1456
305.82785
305.51053
305.19335
304.876
304.55822
304.23972
303.92022
303.59943
303.27709
302.95293
302.62666
302.29804
301.9668
301.63268
301.29544
300.95484
300.61064
300.26263
299.91062
299.5544
299.19383
298.82875
298.45905
298.08463
297.70544
297.32146
296.93267
325.68099
324.95382
324.23948
323.53898
322.8532
322.18286
321.5285
320.89054
320.2692
319.66458
319.07663
318.5052
317.95001
317.41071
316.88686
316.37796
315.88349
315.40286
314.93548
314.48072
314.03798
313.60664
313.18606
312.77566
312.37484
311.98301
311.59961
311.2241
310.85596
310.49466
310.13973
309.79069
309.44709
309.10849
308.77446
308.44461
308.11854
307.79587
307.47623
307.15927
306.84465
306.53203
306.22109
305.91149
305.60294
305.29511
304.98772
304.68046
304.37303
304.06514
303.75651
303.44684
303.13585
302.82326
302.50878
302.19212
301.87302
301.5512
301.22639
300.89832
300.56674
300.2314
299.89207
299.54852
299.20055
298.84798
298.49065
298.12843
297.76122
297.38894
297.01157
296.6291
324.97877
324.23543
323.50617
322.79212
322.09425
321.41333
320.74995
320.10451
319.47723
318.86815
318.27717
317.70405
317.14845
316.60991
316.0879
315.58185
315.09112
314.61504
314.15294
313.70412
313.26789
312.84356
312.43046
312.02792
311.63531
311.25199
310.87737
310.51087
310.15193
309.8
309.45459
309.1152
308.78135
308.45259
308.1285
307.80864
307.49261
307.18004
306.87054
306.56376
306.25934
305.95694
305.65622
305.35688
305.05858
304.76101
304.46387
304.16685
303.86965
303.57197
303.27352
302.974
302.67311
302.37056
302.06606
301.75931
301.45002
301.13791
300.82268
300.50405
300.18175
299.85551
299.52508
299.19021
298.85068
298.50628
298.15684
297.80221
297.44227
297.07694
296.70618
296.32999
324.26126
323.50044
322.75511
322.02655
321.31582
320.62375
319.95097
319.29786
318.66461
318.0512
317.45746
316.88305
316.32752
315.79031
315.27079
314.76826
314.28198
313.81119
313.35511
312.91296
312.48398
312.06739
311.66248
311.2685
310.88477
310.51061
310.1454
309.7885
309.43934
309.09735
308.76199
308.43276
308.10916
307.79072
307.477
307.16758
306.86203
306.55996
306.261
305.96477
305.67092
305.37911
305.08899
304.80024
304.51253
304.22555
303.939
303.65255
303.3659
303.07875
302.7908
302.50174
302.21127
301.91908
301.62487
301.32833
301.02916
300.72706
300.42171
300.11281
299.80007
299.4832
299.16192
298.83596
298.50508
298.16903
297.82764
297.48071
297.12813
296.76978
296.40563
296.03567
323.52708
322.74731
321.98464
321.2405
320.51608
319.81226
319.1297
318.46877
317.82959
317.21208
316.61595
316.04075
315.4859
314.95071
314.43442
313.9362
313.45518
312.99051
312.54128
312.10664
311.68571
311.27767
310.88171
310.49703
310.12291
309.75861
309.40346
309.05681
308.71804
308.38656
308.06181
307.74327
307.43043
307.1228
306.81993
306.52139
306.22675
305.93561
305.64759
305.3623
305.07941
304.79855
304.51938
304.24158
303.96481
303.68877
303.41313
303.13758
302.86182
302.58553
302.30841
302.03013
301.7504
301.4689
301.18531
300.89931
300.61058
300.3188
300.02365
299.72479
299.42192
299.11471
298.80285
298.48606
298.16405
297.83657
297.50339