/*--------------------------------*- C++ -*----------------------------------*\
| =========                 |                                                 |
| \\      /  F ield         | OpenFOAM: The Open Source CFD Toolbox           |
|  \\    /   O peration     | Version:  v1606+                                |
|   \\  /    A nd           | Web:      www.OpenFOAM.com                      |
|    \\/     M anipulation  |                                                 |
\*---------------------------------------------------------------------------*/
FoamFile
{
    version     2.0;
    format      ascii;
    class       volScalarField;
    location    "0.01/Shaded";
    object      T;
}
// * * * * * * * * * * * * * * * * * * * * * * * * * * * * * * * * * * * * * //

dimensions      [0 0 0 1 0 0 0];

internalField   nonuniform List<scalar> 
4320
(
344.3235
343.84126
343.35807
342.87419
342.38972
341.90473
341.41927
340.9334
340.44717
339.96061
339.47378
338.9867
338.49941
338.01194
337.52429
337.0365
336.54858
336.06052
335.57234
335.08403
334.59559
334.107
333.61826
333.12934
332.64022
332.15088
331.66128
331.1714
330.6812
330.19064
329.69967
329.20827
328.71636
328.22392
327.73089
327.23722
326.74285
326.24773
325.75181
325.25502
324.75731
324.25862
323.75889
323.25806
322.75608
322.25288
321.7484
321.24259
320.73539
320.22673
319.71657
319.20484
318.69148
318.17644
317.65966
317.14108
316.62066
316.09833
315.57403
315.0477
314.51928
313.9887
313.4559
312.92077
312.38323
311.84313
311.30031
310.75449
310.20523
309.65162
309.09133
308.517
343.80998
343.32746
342.84368
342.359
341.87362
341.38769
340.9013
340.41454
339.92748
339.44017
338.95267
338.46502
337.97726
337.48942
337.00152
336.5136
336.02566
335.53772
335.04978
334.56183
334.07388
333.58591
333.09791
332.60986
332.12174
331.63352
331.14517
330.65666
330.16794
329.67898
329.18973
328.70015
328.21018
327.71978
327.2289
326.73747
326.24544
325.75275
325.25934
324.76515
324.27012
323.77419
323.27728
322.77934
322.28031
321.78011
321.27868
320.77596
320.27188
319.76637
319.25938
318.75082
318.24064
317.72877
317.21514
316.69967
316.18231
315.66295
315.14154
314.61798
314.09217
313.564
313.03334
312.50004
311.96389
311.42462
310.88185
310.33501
309.78317
309.2247
308.65655
308.07294
343.29726
342.8138
342.32905
341.84336
341.35694
340.86996
340.38256
339.89484
339.40689
338.91877
338.43055
337.94228
337.45401
336.96578
336.47762
335.98955
335.50159
335.01375
334.52604
334.03846
333.55101
333.06367
332.57644
332.08929
331.60219
331.11512
330.62805
330.14094
329.65375
329.16644
328.67895
328.19125
327.70328
327.21497
326.72629
326.23716
325.74753
325.25734
324.76651
324.27499
323.7827
323.28959
322.79557
322.30059
321.80457
321.30744
320.80913
320.30956
319.80868
319.30639
318.80263
318.29732
317.79039
317.28176
316.77135
316.25906
315.74483
315.22854
314.7101
314.1894
313.66631
313.14067
312.61232
312.08104
311.54654
311.00847
310.46632
309.91937
309.36656
308.80625
308.23599
307.65235
342.78513
342.30029
341.81425
341.32731
340.83967
340.35152
339.863
339.37422
338.88529
338.3963
337.9073
337.41837
336.92956
336.4409
335.95244
335.4642
334.97621
334.48847
334.00099
333.51379
333.02685
332.54016
332.05371
331.56747
331.08143
330.59555
330.1098
329.62413
329.13852
328.6529
328.16723
327.68146
327.19554
326.70939
326.22297
325.73622
325.24905
324.76142
324.27324
323.78445
323.29498
322.80476
322.31371
321.82176
321.32882
320.83483
320.33971
319.84338
319.34576
318.84677
318.34633
317.84435
317.34074
316.83543
316.32832
315.81931
315.3083
314.79518
314.27983
313.76211
313.24188
312.71896
312.19312
311.66413
311.13165
310.59528
310.05446
309.50845
308.95626
308.39655
307.82757
307.24738
342.27338
341.78684
341.29923
340.81081
340.32177
339.83229
339.34252
338.85259
338.36261
337.87266
337.38282
336.89317
336.40377
335.91465
335.42586
334.93743
334.44939
333.96174
333.4745
332.98767
332.50125
332.01522
331.52958
331.04429
330.55933
330.07468
329.59028
329.10611
328.62211
328.13825
327.65445
327.17067
326.68686
326.20294
325.71885
325.23453
324.7499
324.2649
323.77944
323.29347
322.80689
322.31964
321.83163
321.34278
320.85302
320.36225
319.8704
319.37739
318.88312
318.3875
317.89046
317.3919
316.89171
316.38982
315.88611
315.38047
314.8728
314.36297
313.85084
313.33626
312.81906
312.29905
311.77599
311.24961
310.71956
310.18541
309.64664
309.10257
308.55234
307.99493
307.42915
306.85388
341.76182
341.27331
340.78389
340.29377
339.80315
339.31219
338.82105
338.32985
337.83871
337.34772
336.85698
336.36656
335.87651
335.38688
334.89774
334.40909
333.92098
333.43341
332.94641
332.45996
331.97407
331.48873
331.00391
330.5196
330.03576
329.55237
329.06937
328.58674
328.10442
327.62235
327.14049
326.65877
326.17713
325.6955
325.21381
324.732
324.24998
323.76769
323.28504
322.80196
322.31836
321.83416
321.34927
320.86362
320.37711
319.88965
319.40116
318.91155
318.42072
317.92858
317.43503
316.93998
316.44331
315.94494
315.44473
314.94259
314.43838
313.93197
313.42321
312.91194
312.39798
311.88111
311.3611
310.83766
310.31045
309.77907
309.24302
308.70172
308.15447
307.60051
307.03904
306.46939
341.25024
340.75955
340.2681
339.77609
339.28371
338.79112
338.29846
337.80587
337.31348
336.82137
336.32964
335.83837
335.34762
334.85746
334.36791
333.87903
333.39083
332.90334
332.41656
331.9305
331.44516
330.96051
330.47655
329.99324
329.51056
329.02847
328.54693
328.06589
327.58529
327.10509
326.62522
326.14563
325.66623
325.18696
324.70776
324.22853
323.74921
323.26971
322.78995
322.30984
321.8293
321.34824
320.86657
320.3842
319.90104
319.41698
318.93195
318.44584
317.95855
317.46998
316.98003
316.48859
315.99555
315.50081
315.00423
314.50571
314.00509
313.50225
312.99702
312.48924
311.97872
311.46524
310.94856
310.4284
309.90444
309.3763
308.84355
308.30569
307.76218
307.21246
306.65597
306.09229
340.73848
340.24539
339.75172
339.25763
338.76332
338.26893
337.77462
337.28053
336.78677
336.29344
335.80065
335.30847
334.81697
334.32621
333.83623
333.34708
332.85878
332.37135
331.8848
331.39914
330.91435
330.43042
329.94734
329.46507
328.98359
328.50285
328.0228
327.54341
327.0646
326.58633
326.10853
325.63112
325.15405
324.67723
324.20058
323.72402
323.24748
322.77086
322.29407
321.81703
321.33965
320.86182
320.38347
319.90448
319.42476
318.94421
318.46273
317.98022
317.49658
317.01168
316.52544
316.03773
315.54844
315.05744
314.56462
314.06985
313.57298
313.07386
312.57234
312.06823
311.56136
311.05151
310.53844
310.02188
309.50153
308.97706
308.4481
307.91422
307.37502
306.83005
306.27896
305.72145
340.22635
339.73068
339.23458
338.73823
338.24182
337.74549
337.24939
336.75366
336.25843
335.76379
335.26985
334.77669
334.28437
333.79297
333.30252
332.81307
332.32465
331.83728
331.35095
330.86569
330.38147
329.89829
329.41612
328.93493
328.45468
327.97534
327.49685
327.01916
326.54221
326.06594
325.59027
325.11514
324.64046
324.16616
323.69216
323.21837
322.74469
322.27104
321.79733
321.32346
320.84933
320.37484
319.89989
319.42439
318.94822
318.47128
317.99347
317.51467
317.03478
316.55368
316.07125
315.58739
315.10196
314.61485
314.12592
313.63504
313.14205
312.64682
312.14918
311.64895
311.14594
310.63995
310.13075
309.61808
309.10169
308.58126
308.05648
307.52701
306.99252
306.45269
305.90726
305.35602
339.71368
339.21522
338.71651
338.21773
337.71905
337.22062
336.72259
336.22511
335.72829
335.23224
334.73706
334.24284
333.74965
333.25756
332.7666
332.27683
331.78827
331.30094
330.81484
330.32999
329.84636
329.36395
328.88272
328.40265
327.92369
327.44579
326.96892
326.493
326.01797
325.54377
325.07031
324.59753
324.12535
323.65366
323.1824
322.71146
322.24075
321.77017
321.29963
320.82903
320.35826
319.88721
319.41579
318.94388
318.47137
317.99815
317.52411
317.04914
316.57312
316.09593
315.61745
315.13756
314.65613
314.17303
313.68813
313.20128
312.71234
312.22116
311.72757
311.2314
310.73247
310.23056
309.72548
309.21698
308.70483
308.18876
307.6685
307.14377
306.61431
306.07987
305.54027
304.99538
339.20027
338.69884
338.19734
337.69594
337.19483
336.69415
336.19405
335.69468
335.19616
334.6986
334.2021
333.70675
333.21262
332.71978
332.22828
331.73815
331.24943
330.76214
330.27628
329.79184
329.30883
328.82721
328.34696
327.86805
327.39042
326.91404
326.43884
325.96476
325.49173
325.01968
324.54852
324.07818
323.60857
323.1396
322.67117
322.20318
321.73554
321.26815
320.80089
320.33366
319.86636
319.39887
318.93108
318.46288
317.99415
317.52477
317.05463
316.58361
316.11158
315.63842
315.16402
314.68823
314.21093
313.73198
313.25125
312.76859
312.28385
311.79689
311.30753
310.8156
310.32094
309.82334
309.3226
308.81852
308.31087
307.79942
307.28395
306.76422
306.24003
305.71118
305.17753
304.639
338.68595
338.18135
337.67687
337.17269
336.66897
336.16588
335.66357
335.16219
334.66185
334.16267
333.66476
333.1682
332.67307
332.17944
331.68735
331.19684
330.70795
330.22069
329.73506
329.25106
328.76868
328.28789
327.80866
327.33096
326.85473
326.37991
325.90646
325.43429
324.96334
324.49352
324.02475
323.55695
323.09001
322.62385
322.15836
321.69343
321.22897
320.76487
320.301
319.83727
319.37356
318.90974
318.4457
317.98133
317.5165
317.05109
316.58497
316.11802
315.65012
315.18113
314.71093
314.23938
313.76634
313.29169
312.81527
312.33695
311.85658
311.37399
310.88903
310.40154
309.91133
309.41823
308.92206
308.42261
307.91969
307.41309
306.90263
306.38812
305.86937
305.34625
304.81865
304.2865
338.17051
337.66255
337.15491
336.64775
336.14126
335.63561
335.13095
334.62741
334.12514
333.62424
333.12483
332.62699
332.13079
331.63631
331.14359
330.65268
330.1636
329.67636
329.19097
328.70743
328.22571
327.74578
327.26762
326.79118
326.3164
325.84323
325.37159
324.90142
324.43263
323.96514
323.49885
323.03368
322.56953
322.10628
321.64384
321.18209
320.72093
320.26023
319.79988
319.33976
318.87976
318.41974
317.95959
317.49917
317.03837
316.57705
316.11509
315.65235
315.1887
314.72402
314.25815
313.79098
313.32236
312.85215
312.3802
311.90637
311.43051
310.95246
310.47208
309.98918
309.50362
309.01521
308.52379
308.02917
307.53118
307.02964
306.52438
306.01524
305.50209
304.9848
304.4633
303.93753
337.65376
337.14224
336.63124
336.12093
335.6115
335.10312
334.59595
334.09014
333.58581
333.08309
332.58208
332.08287
331.58555
331.09017
330.59679
330.10544
329.61616
329.12895
328.64381
328.16074
327.67971
327.20069
326.72365
326.24853
325.77527
325.30381
324.83407
324.36598
323.89944
323.43437
322.97068
322.50825
322.04698
321.58677
321.12749
320.66904
320.21129
319.75413
319.29742
318.84105
318.38489
317.9288
317.47266
317.01634
316.5597
316.10261
315.64494
315.18655
314.7273
314.26705
313.80568
313.34303
312.87896
312.41333
311.946
311.47682
311.00563
310.53229
310.05664
309.57852
309.09777
308.61423
308.12774
307.63813
307.14524
306.64892
306.14902
305.64541
305.13796
304.62659
304.11122
303.59184
337.13549
336.62021
336.10564
335.59199
335.07944
334.56818
334.05835
333.55012
333.04361
332.53896
332.03626
331.53561
331.03709
330.54077
330.04669
329.55489
329.06539
328.57821
328.09334
327.61077
327.13046
326.6524
326.17653
325.70279
325.23112
324.76145
324.2937
323.82778
323.3636
322.90107
322.44006
321.98049
321.52223
321.06517
320.60919
320.15416
319.69996
319.24646
318.79353
318.34104
317.88886
317.43684
316.98485
316.53276
316.08043
315.62771
315.17447
314.72057
314.26586
313.81021
313.35346
312.89548
312.43612
311.97523
311.51267
311.04829
310.58193
310.11346
309.6427
309.16951
308.69375
308.21524
307.73384
307.2494
306.76178
306.27083
305.77642
305.27844
304.77679
304.27139
303.7622
303.24919
336.61548
336.09621
335.57788
335.0607
334.54486
334.03053
333.5179
333.0071
332.4983
331.9916
331.48711
330.98494
330.48517
329.98785
329.49303
329.00076
328.51104
328.02389
327.53931
327.05726
326.57773
326.10067
325.62603
325.15375
324.68375
324.21596
323.75029
323.28665
322.82494
322.36504
321.90685
321.45026
320.99513
320.54135
320.0888
319.63733
319.18681
318.73712
318.28811
317.83964
317.39158
316.94377
316.49609
316.04838
315.6005
315.1523
314.70364
314.25438
313.80436
313.35345
312.90149
312.44833
311.99382
311.53783
311.08019
310.62076
310.15939
309.69593
309.23023
308.76214
308.2915
307.81818
307.34203
306.86291
306.38069
305.89524
305.40644
304.91419
304.41842
303.91905
303.41605
302.90941
336.09351
335.57003
335.04773
334.52681
334.00748
333.48992
332.97432
332.46082
331.94959
331.44073
330.93437
330.4306
329.9295
329.43113
328.93555
328.44278
327.95285
327.46574
326.98147
326.49999
326.02128
325.54528
325.07194
324.60119
324.13295
323.66714
323.20365
322.7424
322.28326
321.82613
321.37088
320.91739
320.46553
320.01518
319.56618
319.11842
318.67173
318.22599
317.78105
317.33675
316.89296
316.44953
316.00629
315.56312
315.11984
314.67632
314.2324
313.78793
313.34276
312.89674
312.44971
312.00153
311.55204
311.10109
310.64853
310.19422
309.73799
309.2797
308.8192
308.35636
307.89101
307.42302
306.95227
306.4786
306.0019
305.52206
305.03898
304.55255
304.06272
303.56942
303.07263
302.57233
335.56933
335.04141
334.51491
333.99004
333.46703
332.94607
332.42733
331.91099
331.39719
330.88606
330.37773
329.87228
329.36979
328.87034
328.37396
327.88068
327.39053
326.90349
326.41955
325.93868
325.46084
324.98597
324.51401
324.04488
323.5785
323.11476
322.65357
322.19482
321.73838
321.28414
320.83197
320.38173
319.93328
319.48649
319.04122
318.5973
318.1546
317.71297
317.27225
316.83229
316.39293
315.95402
315.5154
315.07691
314.63841
314.19972
313.7607
313.32118
312.88102
312.44005
311.99812
311.55507
311.11075
310.66501
310.21769
309.76863
309.3177
308.86474
308.4096
307.95214
307.49223
307.02972
306.56448
306.0964
305.62535
305.15123
304.67394
304.19341
303.70957
303.22238
302.7318
302.23784
335.04269
334.51009
333.97916
333.45013
332.92324
332.39867
331.87663
331.35729
330.8408
330.32729
329.81688
329.30967
328.80574
328.30515
327.80795
327.31416
326.82379
326.33683
325.85327
325.37305
324.89615
324.42249
323.95199
323.48458
323.02015
322.55861
322.09983
321.64371
321.19011
320.7389
320.28995
319.8431
319.39822
318.95515
318.51375
318.07385
317.6353
317.19794
316.76161
316.32614
315.89138
315.45716
315.02332
314.5897
314.15612
313.72244
313.28848
312.85409
312.4191
311.98334
311.54667
311.10892
310.66994
310.22956
309.78763
309.344
308.89851
308.45103
308.0014
307.54948
307.09513
306.63823
306.17865
305.71626
305.25097
304.78266
304.31126
303.83669
303.35889
302.87783
302.39348
301.90583
334.51334
333.97579
333.44019
332.90677
332.37578
331.84743
331.32191
330.79941
330.28008
329.76407
329.25149
328.74245
328.23701
327.73525
327.23721
326.74289
326.25232
325.76548
325.28233
324.80283
324.32693
323.85456
323.38562
322.92003
322.45767
321.99845
321.54222
321.08887
320.63825
320.19022
319.74464
319.30135
318.86019
318.42101
317.98365
317.54793
317.1137
316.68078
316.24901
315.81822
315.38823
314.95888
314.52999
314.10141
313.67294
313.24443
312.81571
312.38661
311.95696
311.52659
311.09535
310.66306
310.22957
309.79472
309.35834
308.92029
308.48041
308.03856
307.59458
307.14834
306.6997
306.24854
305.79473
305.33815
304.87871
304.41631
303.95087
303.48232
303.01061
302.5357
302.05758
301.57624
333.981
333.43823
332.8977
332.35965
331.82434
331.292
330.76282
330.237
329.7147
329.19606
328.68121
328.17025
327.66326
327.16029
326.66138
326.16655
325.67579
325.1891
324.70642
324.22771
323.75289
323.2819
322.81463
322.35097
321.89082
321.43404
320.9805
320.53007
320.08258
319.6379
319.19586
318.75629
318.31903
317.88391
317.45077
317.01941
316.58968
316.16139
315.73436
315.30842
314.88339
314.45909
314.03534
313.61197
313.18879
312.76564
312.34233
311.9187
311.49456
311.06976
310.64412
310.21746
309.78964
309.36048
308.92982
308.49751
308.06339
307.62731
307.18914
306.74872
306.30592
305.86062
305.4127
304.96204
304.50856
304.05215
303.59273
303.13026
302.66467
302.19594
301.72405
301.24899
333.44536
332.8971
332.35136
331.80843
331.26857
330.73202
330.19899
329.66968
329.14426
328.62288
328.10567
327.59272
327.08411
326.5799
326.08011
325.58477
325.09386
324.60736
324.12521
323.64736
323.17373
322.70422
322.23872
321.77714
321.31932
320.86514
320.41445
319.96709
319.52291
319.08174
318.64341
318.20775
317.77457
317.3437
316.91496
316.48816
316.06312
315.63964
315.21755
314.79666
314.37677
313.95771
313.53929
313.12132
312.70362
312.28601
311.8683
311.45032
311.03189
310.61282
310.19296
309.77211
309.35012
308.92682
308.50205
308.07564
307.64743
307.21729
306.78506
306.3506
305.91377
305.47446
305.03255
304.58792
304.14047
303.69013
303.23682
302.78047
302.32104
301.8585
301.39284
300.92406
332.90613
332.35206
331.80083
331.25276
330.7081
330.16712
329.63005
329.09708
328.56839
328.04414
327.52446
327.00944
326.49917
325.99369
325.49303
324.99719
324.50616
324.01991
323.53836
323.06146
322.58911
322.1212
321.65762
321.19824
320.74291
320.29149
319.84381
319.3997
318.95901
318.52154
318.08711
317.65554
317.22664
316.80022
316.37608
315.95404
315.53388
315.11542
314.69847
314.28282
313.86828
313.45466
313.04177
312.6294
312.21737
311.8055
311.39358
310.98144
310.56889
310.15575
309.74185
309.32699
308.91101
308.49375
308.07502
307.65467
307.23255
306.80849
306.38235
305.95399
305.52327
305.09007
304.65427
304.21577
303.77446
303.33027
302.88311
302.43294
301.9797
301.52338
301.06395
300.60141
332.36298
331.80277
331.24576
330.69225
330.14254
329.5969
329.05557
328.51876
327.98665
327.45941
326.93716
326.42001
325.90802
325.40125
324.89971
324.40341
323.91231
323.42637
322.94551
322.46966
321.99871
321.53254
321.07102
320.61399
320.16132
319.71282
319.26834
318.82767
318.39065
317.95708
317.52676
317.09949
316.67508
316.25331
315.83399
315.4169
315.00185
314.58862
314.17701
313.76682
313.35784
312.94987
312.5427
312.13614
311.72999
311.32405
310.91812
310.51202
310.10555
309.69853
309.29077
308.88209
308.4723
308.06124
307.64874
307.23462
306.81873
306.40091
305.98101
305.55889
305.13441
304.70745
304.27788
303.8456
303.41052
302.97255
302.53162
302.08767
301.64065
301.19055
300.73735
300.28106
331.81555
331.24886
330.68574
330.1265
329.57147
329.02092
328.47512
327.93428
327.3986
326.86824
326.34333
325.82397
325.31023
324.80215
324.29975
323.80301
323.31189
322.82635
322.34628
321.8716
321.40218
320.93789
320.47858
320.02409
319.57425
319.12887
318.68778
318.25076
317.81762
317.38816
316.96216
316.53941
316.1197
315.70281
315.28852
314.87662
314.46689
314.05911
313.65307
313.24856
312.84535
312.44324
312.04202
311.64148
311.24141
310.84162
310.44189
310.04203
309.64184
309.24113
308.83971
308.43739
308.03398
307.62932
307.22321
306.81549
306.406
305.99458
305.58107
305.16533
304.74722
304.32661
303.90339
303.47744
303.04867
302.617
302.18235
301.74467
301.30391
300.86005
300.41308
299.963
331.26348
330.68995
330.12036
329.55507
328.99443
328.43872
327.88822
327.34316
326.80374
326.27013
325.74246
325.22083
324.7053
324.19592
323.69267
323.19555
322.70449
322.21943
321.74027
321.26689
320.79915
320.3369
319.87999
319.42822
318.98141
318.53936
318.10186
317.66871
317.23968
316.81456
316.39311
315.97511
315.56034
315.14856
314.73954
314.33306
313.92888
313.52679
313.12655
312.72794
312.33073
311.93472
311.53966
311.14536
310.7516
310.35816
309.96485
309.57144
309.17774
308.78354
308.38866
307.99289
307.59606
307.19797
306.79844
306.3973
305.99438
305.58951
305.18254
304.77333
304.36172
303.9476
303.53083
303.11131
302.68895
302.26365
301.83534
301.40397
300.9695
300.5319
300.09115
299.64727
330.70637
330.12559
329.54918
328.97751
328.41094
327.8498
327.29437
326.74489
326.20157
325.66458
325.13406
324.61009
324.09275
323.58206
323.07801
322.58056
322.08965
321.60519
321.12706
320.65513
320.18924
319.72922
319.27489
318.82605
318.38249
317.94399
317.51033
317.08127
316.65659
316.23605
315.8194
315.4064
314.99681
314.59039
314.18689
313.78608
313.38771
312.99154
312.59734
312.20487
311.81391
311.42421
311.03556
310.64773
310.2605
309.87365
309.48696
309.10022
308.71322
308.32575
307.93761
307.5486
307.15853
306.76721
306.37444
305.98006
305.58388
305.18573
304.78546
304.38292
303.97796
303.57044
303.16025
302.74727
302.33139
301.91254
301.49064
301.06563
300.63747
300.20614
299.77161
299.3339
330.1438
329.55535
328.97171
328.3933
327.82049
327.25363
326.69301
326.1389
325.59151
325.05102
324.51755
323.99121
323.47204
322.96006
322.45525
321.95755
321.46689
320.98316
320.50621
320.0359
319.57205
319.11447
318.66294
318.21725
317.77717
317.34247
316.91289
316.48819
316.06812
315.65242
315.24083
314.83309
314.42895
314.02815
313.63043
313.23554
312.84323
312.45324
312.06534
311.67926
311.29479
310.91166
310.52966
310.14854
309.76807
309.38803
309.0082
308.62835
308.24827
307.86775
307.48657
307.10452
306.72142
306.33706
305.95125
305.5638
305.17454
304.78328
304.38988
303.99416
303.59598
303.1952
302.7917
302.38536
301.97607
301.56374
301.14831
300.72971
300.30789
299.88283
299.45453
299.02298
329.57531
328.97873
328.38745
327.80191
327.22251
326.64963
326.08357
325.52461
324.97298
324.42885
323.89236
323.36359
322.84259
322.32935
321.82384
321.326
320.83571
320.35286
319.87727
319.40878
318.94718
318.49225
318.04376
317.60148
317.16515
316.7345
316.30928
315.88921
315.47402
315.06344
314.65719
314.25499
313.85658
313.46167
313.07001
312.68132
312.29533
311.9118
311.53045
311.15103
310.7733
310.397
310.02189
309.64772
309.27426
308.90128
308.52854
308.15582
307.78289
307.40953
307.03552
306.66066
306.28474
305.90754
305.52888
305.14856
304.7664
304.38221
303.99583
303.6071
303.21585
302.82194
302.42525
302.02566
301.62305
301.21733
300.80843
300.39628
299.98083
299.56207
299.13998
298.71456
329.00041
328.39522
327.79584
327.20275
326.6164
326.03717
325.4654
324.90138
324.34533
323.79745
323.25785
322.72662
322.20378
321.68934
321.18322
320.68535
320.19559
319.71379
319.23976
318.7733
318.31418
317.86216
317.41699
316.97838
316.54607
316.11978
315.6992
315.28406
314.87405
314.46889
314.06827
313.67191
313.27951
312.8908
312.50548
312.12327
311.7439
311.36709
310.99258
310.62009
310.24937
309.88016
309.5122
309.14524
308.77905
308.41337
308.04797
307.68261
307.31706
306.9511
306.5845
306.21704
305.8485
305.47868
305.10738
304.73438
304.35951
303.98257
303.60339
303.2218
302.83763
302.45074
302.06099
301.66825
301.27242
300.87339
300.47108
300.06543
299.6564
299.24394
298.82805
298.40874
328.41859
327.80424
327.19627
326.5952
326.0015
325.41558
324.83781
324.26849
323.70786
323.1561
322.61332
322.07961
321.55498
321.03939
320.53278
320.03502
319.54595
319.06541
318.59317
318.12899
317.67262
317.22379
316.78222
316.34759
315.91962
315.49798
315.08237
314.67247
314.26796
313.86853
313.47387
313.08366
312.69759
312.31538
311.9367
311.56128
311.18881
310.81903
310.45163
310.08635
309.72292
309.36107
309.00054
308.64106
308.28239
307.92427
307.56646
307.20871
306.85079
306.49246
306.1335
305.77367
305.41275
305.05052
304.68678
304.32132
303.95393
303.58443
303.21263
302.83834
302.46141
302.08168
301.699
301.31324
300.92429
300.53203
300.13639
299.7373
299.3347
298.92856
298.51888
298.10565
327.82927
327.20519
326.5881
325.97856
325.37709
324.78413
324.20007
323.62522
323.05982
322.50406
321.95806
321.42186
320.89547
320.37884
319.87186
319.37438
318.88623
318.40717
317.93697
317.47536
317.02204
316.57671
316.13906
315.70874
315.28543
314.8688
314.45849
314.05418
313.65551
313.26215
312.87378
312.49005
312.11065
311.73525
311.36354
310.99522
310.62997
310.2675
309.90753
309.54975
309.1939
308.83969
308.48686
308.13514
307.78426
307.43396
307.084
306.73412
306.38408
306.03364
305.68255
305.33058
304.97751
304.62311
304.26715
303.90943
303.54973
303.18786
302.82362
302.45682
302.08729
301.71487
301.3394
300.96074
300.57878
300.19339
299.80448
299.412
299.01587
298.61607
298.21258
297.80541
327.23185
326.5974
325.97061
325.35209
324.7424
324.14202
323.55135
322.97072
322.40039
321.84053
321.29125
320.75259
320.22452
319.70696
319.19978
318.70279
318.21578
317.73849
317.27063
316.81189
316.36196
315.92047
315.48709
315.06145
314.64318
314.23191
313.82728
313.42891
313.03645
312.64953
312.2678
311.8909
311.51851
311.15027
310.78586
310.42496
310.06725
309.71243
309.36018
309.01021
308.66224
308.31597
307.97113
307.62744
307.28463
306.94243
306.60059
306.25884
305.91694
305.57463
305.23167
304.88781
304.54283
304.19648
303.84853
303.49877
303.14698
302.79294
302.43646
302.07734
301.71538
301.35043
300.98232
300.61089
300.23602
299.8576
299.47551
299.08969
298.70007
298.30661
297.90931
297.50817
326.62564
325.98014
325.34302
324.71497
324.09658
323.48837
322.89077
322.30412
321.72869
321.16463
320.61205
320.07096
319.54131
319.02299
318.51581
318.01956
317.53397
317.05875
316.59357
316.13807
315.69188
315.25463
314.82591
314.40534
313.9925
313.587
313.18843
312.79641
312.41054
312.03044
311.65573
311.28604
310.92102
310.5603
310.20354
309.85041
309.50057
309.15371
308.80951
308.46767
308.12788
307.78986
307.4533
307.11793
306.78348
306.44966
306.11622
305.78287
305.44938
305.11547
304.78089
304.4454
304.10875
303.7707
303.431
303.08943
302.74577
302.39978
302.05126
301.7
301.3458
300.98849
300.62789
300.26383
299.89619
299.52482
299.14964
298.77054
298.38747
298.00038
297.60926
297.21412
326.00993
325.35262
324.70449
324.0663
323.43869
322.82223
322.21736
321.62444
321.04374
320.47541
319.91954
319.37609
318.845
318.3261
317.81917
317.32395
316.84011
316.36732
315.90519
315.45333
315.01131
314.57871
314.15509
313.74001
313.33304
312.93374
312.54167
312.15641
311.77755
311.40468
311.03739
310.6753
310.31802
309.96519
309.61645
309.27144
308.92983
308.59128
308.25546
307.92207
307.59078
307.26131
306.93335
306.6066
306.2808
305.95565
305.63089
305.30623
304.98141
304.65618
304.33025
304.00339
303.67533
303.34582
303.01462
302.68149
302.34618
302.00846
301.66812
301.32493
300.97869
300.6292
300.27627
299.91973
299.55944
299.19525
298.82705
298.45475
298.07827
297.69756
297.31262
296.92344
325.38392
324.71396
324.05408
323.40509
322.76771
322.14254
321.53005
320.93062
320.3445
319.77184
319.2127
318.66702
318.13466
317.61543
317.10905
316.61519
316.13349
315.66354
315.2049
314.75712
314.31973
313.89225
313.4742
313.06509
312.66446
312.27182
311.8867
311.50867
311.13725
310.77204
310.41259
310.0585
309.70938
309.36483
309.02449
308.68797
308.35494
308.02505
307.69796
307.37335
307.0509
306.7303
306.41124
306.09343
305.77658
305.4604
305.14461
304.82893
304.51307
304.19679
303.87979
303.56183
303.24262
302.92193
302.59948
302.27503
301.94832
301.61912
301.28718
300.95228
300.61419
300.27271
299.92764
299.57878
299.22598
298.86909
298.50797
298.14253
297.77269
297.39839
297.01962
296.63637
324.74672
324.0632
323.39075
322.73026
322.0825
321.44813
320.82766
320.22147
319.62981
319.0528
318.49046
317.94269
317.4093
316.89004
316.38456
315.89248
315.41335
314.94671
314.49205
314.04886
313.61661
313.19477
312.78281
312.38019
311.9864
311.60092
311.22326
310.85292
310.48942
310.13232
309.78116
309.43551
309.09496
308.7591
308.42754
308.09991
307.77583
307.45496
307.13696
306.82147
306.50819
306.19679
305.88696
305.57841
305.27082
304.96391
304.65739
304.35098
304.04438
303.73733
303.42955
303.12076
302.8107
302.49908
302.18565
301.87015
301.5523
301.23186
300.90857
300.58218
300.25247
299.91921
299.58218
299.24118
298.89603
298.54656
298.19264
297.83415
297.47099
297.10312
296.73051
296.35315
324.09737
323.39928
322.71335
322.04057
321.3818
320.73773
320.10891
319.49573
318.89841
318.31706
317.75163
317.20199
316.66788
316.14895
315.64481
315.15497
314.67892
314.21612
313.766
313.32797
312.90143
312.4858
312.0805
311.68493
311.29854
310.92076
310.55107
310.18893
309.83385
309.48535
309.14294
308.80618
308.47464
308.14789
307.82553
307.50717
307.19244
306.88097
306.5724
306.2664
305.96263
305.66077
305.36051
305.06152
304.76352
304.46619
304.16925
303.87241
303.57537
303.27786
302.97958
302.68026
302.37962
302.07737
301.77324
301.46695
301.15823
300.84681
300.53243
300.21481
299.89371
299.56889
299.24011
298.90715
298.56981
298.22792
297.88131
297.52985
297.17345
296.81204
296.44558
296.07407
323.4348
322.721
322.02059
321.33468
320.66419
320.0099
319.37235
318.75195
318.14891
317.56327
316.99495
316.44372
315.90925
315.39111
314.8888
314.40176
313.92939
313.47105
313.02608
312.59384
312.17366
311.76487
311.36684
310.97893
310.60053
310.23104
309.86987
309.51649
309.17035
308.83095
308.49778
308.17039
307.84831
307.53111
307.21837
306.9097
306.6047
306.30301
306.00426
305.7081
305.4142
305.12223
304.83186
304.54278
304.25468
303.96726
303.68021
303.39325
303.10608
302.8184
302.52993
302.24038
301.94945
301.65687
301.36233
301.06555
300.76625
300.46413
300.15892
299.85033
299.5381
299.22196
298.90165
298.57694
298.24761
297.91344
297.57428
297.22996
296.88038
296.52546
296.16514
295.79945
322.7578
322.02703
321.31103
320.61105
319.92811
319.26302
318.61638
317.98857
317.37977
316.78998
316.21902
315.66657
315.13221
314.6154
314.11553
313.63194
313.16391
312.71073
312.27163
311.84589
311.43276
311.03151
310.64143
310.26184
309.89207
309.53148
309.17945
308.83539
308.49875
308.16898
307.84556
307.52802
307.21588
306.90868
306.606
306.30744
306.01258
305.72106
305.43251
305.14657
304.86289
304.58115
304.30102
304.02218
303.74432
303.46712
303.19029
302.91353
302.63654
302.35901
302.08066
301.80118
301.52028
301.23766
300.95302
300.66605
300.37646
300.08395
299.7882
299.48893
299.18584
298.87864
298.56705
298.25082
297.92969
297.60344
297.27187
296.93481
296.59213
296.24373
295.88957
295.52964
322.06504
321.31587
320.58305
319.86797
319.17176
318.4953
317.8392
317.20383
316.58932
315.99557
315.42233
314.86915
314.33547
313.82065
313.32393
312.84454
312.38164
311.9344
311.50198
311.08352
310.67822
310.28526
309.90388
309.53332
309.17287
308.82183
308.47957
308.14545
307.81888
307.4993
307.18617
306.87899
306.57727
306.28054
305.98838
305.70035
305.41605
305.13511
304.85714
304.58178
304.3087
304.03755
303.768
303.49974
303.23245
302.96581
302.69952
302.43328
302.16679
301.89973
301.63182
301.36274
301.09218
300.81985
300.54542
300.26858
299.98902
299.70642
299.42045
299.1308
298.83714
298.53917
298.23658
297.92908