/*--------------------------------*- C++ -*----------------------------------*\
| =========                 |                                                 |
| \\      /  F ield         | OpenFOAM: The Open Source CFD Toolbox           |
|  \\    /   O peration     | Version:  v1606+                                |
|   \\  /    A nd           | Web:      www.OpenFOAM.com                      |
|    \\/     M anipulation  |                                                 |
\*---------------------------------------------------------------------------*/
FoamFile
{
    version     2.0;
    format      ascii;
    class       volScalarField;
    location    "0.03/Shaded";
    object      T;
}
// * * * * * * * * * * * * * * * * * * * * * * * * * * * * * * * * * * * * * //

dimensions      [0 0 0 1 0 0 0];

internalField   nonuniform List<scalar> 
4320
(
346.73485
346.26826
345.79802
345.32441
344.84797
344.36911
343.88816
343.40538
342.92098
342.43512
341.94795
341.45958
340.97012
340.47964
339.98822
339.49591
339.00278
338.50885
338.01417
337.51875
337.02262
336.52578
336.02824
335.53
335.03105
334.53138
334.03098
333.52983
333.0279
332.52515
332.02158
331.51712
331.01176
330.50545
329.99814
329.48979
328.98036
328.46979
327.95804
327.44505
326.93077
326.41515
325.89814
325.37967
324.8597
324.33817
323.81502
323.2902
322.76366
322.23534
321.70518
321.17313
320.63913
320.10314
319.5651
319.02496
318.48266
317.93815
317.39137
316.84226
316.29078
315.73684
315.18038
314.62131
314.05954
313.49493
312.92731
312.35641
311.78178
311.20247
310.61613
310.01519
346.22477
345.74906
345.27225
344.79364
344.31315
343.83089
343.347
342.86165
342.37498
341.88712
341.39819
340.90828
340.41749
339.92588
339.43353
338.94048
338.44678
337.95248
337.45758
336.96213
336.46613
335.96959
335.47252
334.9749
334.47673
333.978
333.47869
332.97876
332.47821
331.97698
331.47506
330.97239
330.46894
329.96467
329.45952
328.95345
328.44641
327.93833
327.42918
326.91889
326.40741
325.89467
325.38061
324.86519
324.34833
323.82997
323.31006
322.78853
322.26532
321.74036
321.2136
320.68497
320.1544
319.62183
319.0872
318.55044
318.01147
317.47022
316.92662
316.38057
315.83198
315.28075
314.72673
314.16978
313.60969
313.04619
312.4789
311.90721
311.3302
310.74619
310.15206
309.54187
345.7125
345.22986
344.74714
344.2636
343.77895
343.29311
342.80612
342.31804
341.82896
341.33898
340.84818
340.35664
339.86443
339.37163
338.87828
338.38444
337.89014
337.39542
336.90029
336.40479
335.90891
335.41267
334.91606
334.41908
333.9217
333.42392
332.92572
332.42706
331.92791
331.42824
330.928
330.42716
329.92568
329.42349
328.92055
328.41681
327.91221
327.4067
326.9002
326.39267
325.88404
325.37424
324.86321
324.35089
323.8372
323.32209
322.80548
322.2873
321.76748
321.24596
320.72266
320.19751
319.67044
319.14136
318.61021
318.07689
317.54133
317.00343
316.46308
315.92018
315.3746
314.8262
314.27479
313.72015
313.16201
312.6
312.03359
311.46206
310.88432
310.29869
309.70266
309.09272
345.19786
344.70963
344.22169
343.7335
343.24475
342.75531
342.26512
341.77422
341.28263
340.79043
340.29767
339.80442
339.31073
338.81667
338.32228
337.82759
337.33265
336.83749
336.34211
335.84654
335.35078
334.85484
334.3587
333.86236
333.36579
332.86899
332.37192
331.87455
331.37685
330.87877
330.38027
329.88131
329.38184
328.88179
328.38112
327.87977
327.37768
326.87478
326.371
325.8663
325.36058
324.85379
324.34586
323.83671
323.32627
322.81446
322.30122
321.78647
321.27012
320.75211
320.23235
319.71076
319.18725
318.66175
318.13415
317.60438
317.07231
316.53785
316.00088
315.46126
314.91883
314.37343
313.82483
313.27279
312.71696
312.15693
311.59215
311.02185
310.44501
309.86026
309.26581
308.65968
344.68103
344.18796
343.69534
343.20279
342.71007
342.21705
341.72365
341.22985
340.73569
340.24119
339.74641
339.25138
338.75615
338.26078
337.76529
337.26973
336.77412
336.27849
335.78284
335.2872
334.79156
334.29591
333.80025
333.30457
332.80885
332.31305
331.81714
331.3211
330.82489
330.32844
329.83173
329.3347
328.83729
328.33945
327.84111
327.34221
326.84269
326.34247
325.84149
325.33968
324.83695
324.33325
323.82848
323.32258
322.81546
322.30705
321.79726
321.28601
320.77321
320.25879
319.74265
319.2247
318.70486
318.18301
317.65908
317.13294
316.60448
316.07359
315.54012
315.00392
314.46483
313.92264
313.37712
312.82798
312.27488
311.71739
311.15496
310.5869
310.01233
309.43021
308.83931
308.2385
344.16218
343.6647
343.16773
342.67106
342.17451
341.67796
341.18134
340.68464
340.18785
339.69101
339.19414
338.69728
338.20046
337.70373
337.20712
336.71064
336.21434
335.71822
335.2223
334.72657
334.23105
333.73571
333.24055
332.74555
332.25068
331.75592
331.26122
330.76655
330.27186
329.77711
329.28224
328.78719
328.29191
327.79633
327.30039
326.80401
326.30713
325.80967
325.31156
324.81272
324.31307
323.81252
323.31101
322.80844
322.30472
321.79978
321.29353
320.78587
320.27671
319.76597
319.25355
318.73934
318.22325
317.70518
317.185
316.66262
316.13789
315.6107
315.08088
314.54829
314.01272
313.47397
312.93181
312.38592
311.83598
311.28157
310.72217
310.15721
309.58596
309.00764
308.42144
307.82666
343.6414
343.13973
342.63865
342.13802
341.63774
341.13771
340.63789
340.13827
339.63883
339.1396
338.6406
338.14187
337.64342
337.14529
336.64751
336.15011
335.65309
335.15647
334.66026
334.16446
333.66905
333.17404
332.6794
332.1851
331.69113
331.19743
330.70398
330.21073
329.71763
329.22462
328.73165
328.23865
327.74556
327.25232
326.75884
326.26506
325.7709
325.27628
324.78112
324.28533
323.78883
323.29154
322.79336
322.29421
321.79399
321.29262
320.78999
320.28602
319.7806
319.27364
318.76503
318.25466
317.74244
317.22824
316.71195
316.19345
315.67259
315.14924
314.62325
314.09443
313.5626
313.02754
312.48901
311.94672
311.40035
310.8495
310.29374
309.73256
309.16541
308.59169
308.01086
307.42248
343.11872
342.61298
342.10791
341.60343
341.09948
340.59602
340.09302
339.59046
339.08835
338.5867
338.08554
337.58489
337.08478
336.58522
336.08626
335.58789
335.09014
334.59302
334.09652
333.60064
333.10538
332.6107
332.1166
331.62304
331.12999
330.63741
330.14526
329.65348
329.16201
328.67081
328.1798
327.68892
327.19811
326.70727
326.21634
325.72524
325.23388
324.74218
324.25006
323.75741
323.26416
322.77021
322.27547
321.77983
321.28321
320.7855
320.2866
319.78642
319.28484
318.78176
318.27707
317.77066
317.26242
316.75222
316.23994
315.72545
315.20861
314.68926
314.16726
313.64241
313.11454
312.58341
312.0488
311.51043
310.968
310.42115
309.86952
309.31268
308.75019
308.18163
307.6066
307.02482
342.59412
342.08436
341.57535
341.06708
340.55951
340.05264
339.54645
339.04094
338.53614
338.03204
337.52869
337.02609
336.52428
336.02328
335.5231
335.02377
334.52528
334.02764
333.53086
333.03492
332.5398
332.04549
331.55196
331.05918
330.5671
330.07568
329.58487
329.09462
328.60486
328.11552
327.62655
327.13787
326.6494
326.16105
325.67275
325.18442
324.69595
324.20727
323.71828
323.22887
322.73897
322.24846
321.75725
321.26523
320.7723
320.27836
319.7833
319.28701
318.78938
318.2903
317.78965
317.28732
316.78318
316.27711
315.76897
315.25864
314.74596
314.23078
313.71294
313.19226
312.66855
312.1416
311.61118
311.07703
310.53888
309.99642
309.44932
308.89725
308.33986
307.77682
307.20786
306.63279
342.06755
341.55377
341.04084
340.52878
340.0176
339.50731
338.99793
338.48946
337.98193
337.47536
336.96978
336.46522
335.96168
335.45921
334.9578
334.45748
333.95825
333.46011
332.96304
332.46705
331.97211
331.4782
330.98527
330.4933
330.00224
329.51204
329.02263
328.53397
328.04598
327.5586
327.07174
326.58533
326.09929
325.61352
325.12795
324.64247
324.157
323.67143
323.18567
322.69961
322.21316
321.72619
321.23862
320.75033
320.26121
319.77115
319.28004
318.78777
318.2942
317.79924
317.30275
316.80462
316.30471
315.8029
315.29905
314.79302
314.28466
313.77381
313.26032
312.744
312.22467
311.70212
311.17613
310.64648
310.11291
309.57516
309.03294
308.48598
307.934
307.37675
306.81405
306.24575
341.53893
341.02109
340.50421
339.98835
339.47354
338.95982
338.44721
337.93575
337.42547
336.9164
336.40857
335.902
335.39672
334.89275
334.39011
333.88879
333.38881
332.89017
332.39284
331.89683
331.40209
330.9086
330.41632
329.92521
329.43522
328.94629
328.45836
327.97136
327.48522
326.99986
326.5152
326.03116
325.54764
325.06455
324.5818
324.09928
323.6169
323.13455
322.65213
322.16953
321.68663
321.20333
320.71951
320.23507
319.74987
319.26381
318.77677
318.28863
317.79926
317.30853
316.81634
316.32254
315.827
315.32959
314.83017
314.32859
313.8247
313.31836
312.80939
312.29761
311.78286
311.26493
310.74362
310.21872
309.68999
309.15722
308.62015
308.07857
307.53224
306.98099
306.42466
305.86317
341.00816
340.48618
339.9653
339.44559
338.92711
338.40991
337.89405
337.37957
336.8665
336.35489
335.84477
335.33618
334.82913
334.32365
333.81975
333.31744
332.81672
332.31758
331.82001
331.32399
330.82949
330.33647
329.84489
329.35469
328.86583
328.37824
327.89186
327.4066
326.92239
326.43914
325.95677
325.47518
324.99429
324.51398
324.03415
323.5547
323.07553
322.59651
322.11755
321.63851
321.15929
320.67977
320.19983
319.71935
319.23821
318.75627
318.27343
317.78955
317.3045
316.81815
316.33038
315.84105
315.35002
314.85715
314.3623
313.86533
313.36609
312.86441
312.36013
311.85309
311.34311
310.83
310.31358
309.79365
309.27001
308.74244
308.21076
307.67477
307.13429
306.58917
306.03931
305.48463
340.47512
339.94891
339.42395
338.90032
338.3781
337.85738
337.33821
336.82065
336.30475
335.79056
335.27813
334.76747
334.25863
333.75163
333.24647
332.74316
332.24171
331.74209
331.2443
330.74831
330.25408
329.76157
329.27073
328.78152
328.29386
327.80768
327.32292
326.83948
326.35729
325.87625
325.39627
324.91725
324.43908
323.96166
323.48487
323.00861
322.53276
322.0572
321.58181
321.10647
320.63105
320.15544
319.67951
319.20312
318.72615
318.24848
317.76996
317.29047
316.80988
316.32805
315.84484
315.36012
314.87374
314.38556
313.89545
313.40324
312.90879
312.41194
311.91253
311.4104
310.90538
310.39729
309.88595
309.3712
308.85283
308.33068
307.80458
307.27435
306.73986
306.20098
305.65764
305.10979
339.93966
339.40911
338.87996
338.35232
337.8263
337.30197
336.77943
336.25873
335.73996
335.22315
334.70835
334.19561
333.68496
333.17641
332.66998
332.16568
331.6635
331.16343
330.66544
330.16951
329.6756
329.18366
328.69364
328.20546
327.71907
327.23439
326.75134
326.26982
325.78975
325.31102
324.83354
324.35719
323.88186
323.40745
322.93382
322.46087
321.98846
321.51648
321.0448
320.57329
320.10181
319.63024
319.15844
318.68629
318.21364
317.74036
317.26631
316.79136
316.31536
315.83819
315.35969
314.87972
314.39814
313.91481
313.42957
312.94228
312.45279
311.96093
311.46656
310.96951
310.46962
309.96673
309.46066
308.95126
308.43836
307.9218
307.40143
306.87711
306.34872
305.81618
305.2794
304.73837
339.40163
338.8666
338.33315
337.80139
337.27146
336.74345
336.21745
335.69356
335.17184
334.65236
334.13517
333.62031
333.10781
332.59771
332.09001
331.58472
331.08183
330.58132
330.08318
329.58735
329.09381
328.60249
328.11334
327.62629
327.14126
326.65816
326.17691
325.69741
325.21956
324.74326
324.26838
323.79483
323.32247
322.85118
322.38085
321.91133
321.44251
320.97425
320.50641
320.03886
319.57146
319.10407
318.63656
318.16878
317.70059
317.23185
316.76241
316.29215
315.8209
315.34852
314.87488
314.39982
313.92319
313.44485
312.96465
312.48244
311.99806
311.51136
311.02219
310.53039
310.0358
309.53827
309.03764
308.53376
308.02648
307.51566
307.00116
306.48287
305.96068
305.43453
304.90435
304.37013
338.86086
338.3212
337.7833
337.24731
336.71335
336.18155
335.65202
335.12485
334.60012
334.07791
333.55827
333.04126
332.5269
332.01523
331.50625
330.99998
330.4964
329.99549
329.49722
329.00155
328.50843
328.01781
327.52961
327.04375
326.56017
326.07875
325.59941
325.12204
324.64653
324.17276
323.70063
323.22999
322.76073
322.29271
321.8258
321.35987
320.89477
320.43037
319.96652
319.50308
319.03991
318.57685
318.11377
317.65051
317.18693
316.72288
316.25822
315.79278
315.32643
314.85901
314.39038
313.92038
313.44886
312.97567
312.50066
312.02368
311.54458
311.0632
310.57938
310.09299
309.60386
309.11186
308.61682
308.11861
307.61709
307.11214
306.60363
306.09147
305.57557
305.05586
304.5323
304.00488
338.31715
337.77269
337.23019
336.68982
336.15171
335.61602
335.08285
334.55231
334.0245
333.49949
332.97736
332.45815
331.94191
331.42865
330.9184
330.41116
329.9069
329.40562
328.90727
328.41182
327.91919
327.42933
326.94217
326.45761
325.97556
325.49593
325.01861
324.54349
324.07044
323.59935
323.13008
322.6625
322.19648
321.73187
321.26854
320.80633
320.34511
319.88472
319.42501
318.96584
318.50704
318.04848
317.58998
317.13141
316.6726
316.2134
315.75366
315.29321
314.83192
314.36961
313.90615
313.44137
312.97511
312.50723
312.03758
311.56599
311.09232
310.61641
310.13811
309.65728
309.17377
308.68743
308.19813
307.70573
307.21011
306.71115
306.20874
305.7028
305.19324
304.68002
304.16309
303.64246
337.7703
337.22086
336.67359
336.12868
335.58628
335.04656
334.50964
333.97564
333.44466
332.9168
332.39211
331.87067
331.35251
330.83767
330.32614
329.81794
329.31304
328.81143
328.31305
327.81786
327.3258
326.83679
326.35075
325.86758
325.38719
324.90947
324.43429
323.96154
323.49109
323.0228
322.55654
322.09217
321.62954
321.16849
320.70889
320.25057
319.79338
319.33717
318.88177
318.42702
317.97277
317.51886
317.06512
316.61139
316.15751
315.70333
315.24867
314.79339
314.33731
313.88028
313.42215
312.96275
312.50192
312.03951
311.57536
311.10933
310.64124
310.17097
309.69834
309.22323
308.74548
308.26495
307.78153
307.29507
306.80546
306.3126
305.81638
305.31672
304.81357
304.30687
303.79659
303.28273
337.22009
336.66546
336.11324
335.56361
335.01677
334.47288
333.93209
333.39452
332.86028
332.32948
331.8022
331.27848
330.75838
330.24193
329.72913
329.21999
328.71448
328.21258
327.71423
327.21938
326.72797
326.2399
325.75508
325.27342
324.7948
324.3191
323.8462
323.37596
322.90825
322.44292
321.97983
321.51882
321.05974
320.60242
320.14671
319.69245
319.23946
318.78759
318.33667
317.88652
317.43699
316.9879
316.53908
316.09037
315.6416
315.1926
314.7432
314.29324
313.84256
313.39098
312.93834
312.48448
312.02925
311.57247
311.114
310.65367
310.19134
309.72684
309.26004
308.79079
308.31895
307.84438
307.36695
306.88655
306.40307
305.9164
305.42646
304.93317
304.43647
303.93632
303.43269
302.92559
336.66629
336.10625
335.54886
334.99434
334.44288
333.89467
333.34987
332.80861
332.27102
331.73721
331.20725
330.68122
330.15915
329.64108
329.12702
328.61696
328.11088
327.60874
327.11049
326.61606
326.12538
325.63835
325.15487
324.67483
324.19811
323.72458
323.2541
322.78652
322.32171
321.8595
321.39974
320.94226
320.48689
320.03348
319.58184
319.13181
318.6832
318.23586
317.78959
317.34422
316.89959
316.4555
316.01179
315.56828
315.12479
314.68115
314.23719
313.79274
313.34761
312.90165
312.45469
312.00655
311.55707
311.1061
310.65346
310.19901
309.74258
309.28402
308.82319
308.35995
307.89415
307.42566
306.95437
306.48015
306.00289
305.52251
305.03892
304.55205
304.06185
303.56827
303.07131
302.57096
336.10864
335.54294
334.98016
334.42054
333.86428
333.31159
332.76263
332.21756
331.67652
331.1396
330.60691
330.07852
329.55446
329.03476
328.51945
328.0085
327.50189
326.99957
326.50149
326.00757
325.51772
325.03184
324.54982
324.07154
323.59686
323.12564
322.65773
322.19299
321.73124
321.27232
320.81606
320.36229
319.91083
319.4615
319.01411
318.5685
318.12447
317.68183
317.24041
316.80002
316.36047
315.92158
315.48316
315.04503
314.60702
314.16893
313.73059
313.29181
312.85243
312.41227
311.97115
311.52891
311.08536
310.64036
310.19372
309.7453
309.29494
308.84248
308.38777
307.93068
307.47106
307.00879
306.54375
306.07581
305.60489
305.13088
304.65372
304.17332
303.68966
303.20268
302.71238
302.21875
335.54686
334.97525
334.40684
333.84189
333.28063
332.72327
332.17001
331.62099
331.07638
330.53628
330.00078
329.46998
328.9439
328.42258
327.90602
327.39422
326.88713
326.3847
325.88687
325.39356
324.90465
324.42005
323.93963
323.46324
322.99075
322.52201
322.05685
321.5951
321.13659
320.68115
320.22859
319.77872
319.33135
318.8863
318.44337
318.00238
317.56311
317.12539
316.68902
316.25379
315.81953
315.38603
314.9531
314.52055
314.0882
313.65585
313.22332
312.79042
312.35697
311.92279
311.48771
311.05153
310.6141
310.17523
309.73477
309.29255
308.84841
308.4022
307.95377
307.50297
307.04967
306.59374
306.13506
305.67352
305.20902
304.74148
304.2708
303.79694
303.31985
302.83949
302.35585
301.86894
334.98066
334.40286
333.82856
333.25804
332.69157
332.12935
331.5716
331.0185
330.4702
329.92681
329.38845
328.85518
328.32706
327.80412
327.28634
326.77372
326.26621
325.76376
325.26627
324.77367
324.28584
323.80265
323.32396
322.84964
322.37951
321.91342
321.45118
320.99262
320.53755
320.08578
319.63711
319.19134
318.74828
318.30772
317.86945
317.43328
316.999
316.5664
316.13528
315.70543
315.27666
314.84876
314.42152
313.99476
313.56828
313.14187
312.71535
312.28852
311.86119
311.43319
311.00432
310.5744
310.14325
309.71071
309.27659
308.84074
308.40299
307.96318
307.52117
307.07681
306.62997
306.1805
305.72831
305.27327
304.81529
304.35428
303.89016
303.42289
302.9524
302.47868
302.00171
301.52149
334.40974
333.82543
333.24496
332.66862
332.09669
331.52941
330.967
330.40966
329.85754
329.31077
328.76947
328.2337
327.70352
327.17894
326.65998
326.14659
325.63873
325.13633
324.6393
324.14754
323.66091
323.17928
322.7025
322.2304
321.76282
321.29957
320.84045
320.38528
319.93386
319.48597
319.04141
318.59996
318.16142
317.72557
317.29219
316.86107
316.43199
316.00473
315.57908
315.15483
314.73177
314.30968
313.88836
313.46759
313.04718
312.62692
312.20661
311.78606
311.36505
310.94342
310.52096
310.09748
309.67281
309.24677
308.81917
308.38986
307.95866
307.52542
307.08999
306.65221
306.21195
305.76908
305.32349
304.87505
304.42368
303.96929
303.5118
303.05115
302.58731
302.12024
301.64993
301.17639
333.83375
333.24261
332.65566
332.07322
331.49558
330.92302
330.35576
329.79401
329.23794
328.68769
328.14336
327.60505
327.07279
326.5466
326.02648
325.51238
325.00426
324.50202
324.00556
323.51477
323.0295
322.54959
322.0749
321.60522
321.14038
320.68017
320.22439
319.77283
319.32527
318.88149
318.44127
318.00438
317.57059
317.13968
316.71142
316.28558
315.86193
315.44025
315.0203
314.60188
314.18475
313.7687
313.35351
312.93896
312.52485
312.11095
311.69707
311.28299
310.86852
310.45346
310.0376
309.62077
309.20276
308.7834
308.36251
307.93991
307.51544
307.08892
306.66022
306.22917
305.79563
305.35949
304.92061
304.47888
304.03421
303.58651
303.13571
302.68174
302.22457
301.76417
301.30053
300.83365
333.25233
332.65401
332.06025
331.4714
330.88779
330.3097
329.73739
329.17106
328.6109
328.05706
327.50965
326.96874
326.43439
325.90661
325.38537
324.87064
324.36234
323.86037
323.36462
322.87495
322.39121
321.91322
321.4408
320.97375
320.51186
320.05492
319.60271
319.15499
318.71154
318.27211
317.83647
317.40438
316.9756
316.54988
316.12698
315.70666
315.28869
314.87282
314.45883
314.04647
313.63552
313.22574
312.81691
312.40881
312.00122
311.59391
311.18667
310.77929
310.37156
309.96328
309.55424
309.14424
308.7331
308.32062
307.90661
307.49091
307.07333
306.65371
306.23189
305.80771
305.38104
304.95174
304.5197
304.08478
303.6469
303.20597
302.76192
302.31468
301.86422
301.4105
300.95352
300.49328
332.6651
332.0592
331.45828
330.86271
330.27284
329.68897
329.11137
328.54028
327.97589
327.41835
326.86777
326.32425
325.7878
325.25844
324.73615
324.22086
323.7125
323.21093
322.71605
322.22768
321.74565
321.26977
320.79984
320.33564
319.87695
319.42352
318.97512
318.5315
318.09241
317.65759
317.2268
316.79977
316.37625
315.95597
315.5387
315.12417
314.71213
314.30234
313.89454
313.4885
313.08397
312.68071
312.27848
311.87707
311.47623
311.07573
310.67537
310.27491
309.87415
309.47286
309.07085
308.6679
308.26382
307.85841
307.45149
307.04286
306.63235
306.21979
305.80502
305.38787
304.9682
304.54589
304.12079
303.69279
303.2618
302.82772
302.39048
301.95002
301.50629
301.05928
300.60895
300.15534
332.07165
331.45776
330.84928
330.24663
329.65018
329.06026
328.47715
327.90111
327.33233
326.77099
326.21718
325.67099
325.13245
324.60157
324.07829
323.56254
323.05423
322.55323
322.05938
321.57249
321.09239
320.61885
320.15165
319.69055
319.2353
318.78565
318.34133
317.90208
317.46762
317.03769
316.61202
316.19033
315.77234
315.3578
314.94642
314.53795
314.13212
313.72866
313.32733
312.92786
312.53001
312.13352
311.73815
311.34367
310.94982
310.55639
310.16314
309.76983
309.37626
308.9822
308.58743
308.19174
307.79493
307.3968
306.99715
306.59578
306.19253
305.7872
305.37964
304.96968
304.55716
304.14196
303.72393
303.30297
302.87895
302.4518
302.02144
301.5878
301.15085
300.71054
300.26688
299.81986
331.47151
330.84918
330.23274
329.62263
329.01927
328.423
327.83413
327.25294
326.67963
326.11436
325.55725
325.00838
324.46776
323.93539
323.41121
322.89513
322.38703
321.88675
321.39413
320.90895
320.431
319.96005
319.49583
319.0381
318.58657
318.14098
317.70103
317.26644
316.83692
316.41217
315.99191
315.57585
315.1637
314.75517
314.34998
313.94786
313.54851
313.15167
312.75708
312.36446
311.97355
311.5841
311.19585
310.80855
310.42196
310.03584
309.64993
309.26403
308.87788
308.49126
308.10396
307.71576
307.32644
306.93579
306.54361
306.14971
305.7539
305.35599
304.95581
304.55319
304.14798
303.74002
303.32919
302.91537
302.49843
302.0783
301.65488
301.22811
300.79796
300.36438
299.92737
299.48694
330.86421
330.23294
329.60808
328.99011
328.37948
327.77655
327.18167
326.59511
326.0171
325.4478
324.88733
324.33576
323.79309
323.25931
322.73433
322.21806
321.71033
321.21098
320.7198
320.23657
319.76103
319.29293
318.83199
318.37792
317.93042
317.48919
317.05392
316.62431
316.20003
315.78078
315.36626
314.95614
314.55013
314.14793
313.74923
313.35374
312.96118
312.57125
312.18368
311.7982
311.41451
311.03237
310.65151
310.27167
309.89259
309.51403
309.13573
308.75747
308.37899
308.00006
307.62047
307.23997
306.85836
306.47541
306.09092
305.70469
305.31651
304.9262
304.53358
304.13847
303.74071
303.34015
302.93665
302.53008
302.12032
301.70728
301.29088
300.87104
300.44772
300.02088
299.59052
299.15665
330.24923
329.60848
328.97471
328.34844
327.73014
327.12023
326.51905
325.92691
325.34404
324.7706
324.20672
323.65244
323.10777
322.57266
322.04702
321.5307
321.02355
320.52534
320.03586
319.55484
319.08201
318.61707
318.15972
317.70963
317.26648
316.82995
316.3997
315.9754
315.5567
315.14329
314.73483
314.33099
313.93145
313.53589
313.144
312.75547
312.37
311.98729
311.60705
311.22898
310.85282
310.47827
310.10508
309.73296
309.36167
308.99093
308.62051
308.25014
307.87958
307.50859
307.13694
306.76439
306.39071
306.01569
305.63911
305.26074
304.88041
304.49789
304.11301
303.72558
303.33544
302.94242
302.54639
302.14719
301.74472
301.33887
300.92954
300.51668
300.10023
299.68015
299.25644
298.8291
329.62599
328.97519
328.33198
327.69692
327.07054
326.45328
325.84552
325.24757
324.65967
324.08199
323.51465
322.95768
322.41107
321.87474
321.34859
320.83243
320.32607
319.82928
319.34177
318.86327
318.39346
317.93201
317.47858
317.03283
316.5944
316.16293
315.73806
315.31942
314.90668
314.49945
314.09741
313.70019
313.30747
312.9189
312.53415
312.15291
311.77485
311.39967
311.02707
310.65673
310.28838
309.92173
309.55649
309.19239
308.82916
308.46653
308.10424
307.74203
307.37965
307.01685
306.65339
306.28903
305.92353
305.55667
305.18821
304.81794
304.44565
304.07113
303.69418
303.31462
302.93226
302.54694
302.15851
301.76682
301.37174
300.97317
300.57101
300.16518
299.75563
299.34233
298.92526
298.50443
328.99388
328.33238
327.67914
327.03479
326.39988
325.77489
325.16023
324.55624
323.96315
323.38114
322.81031
322.25068
321.70222
321.16482
320.63833
320.12256
319.61727
319.12217
318.63696
318.16131
317.69488
317.23729
316.78817
316.34714
315.9138
315.48778
315.06868
314.65611
314.24969
313.84904
313.45378
313.06356
312.67802
312.29679
311.91954
311.54592
311.17562
310.8083
310.44365
310.08137
309.72115
309.36269
309.0057
308.64991
308.29503
307.94078
307.58691
307.23313
306.8792
306.52486
306.16985
305.81393
305.45686
305.09839
304.73829
304.37634
304.01231
303.64599
303.27718
302.90567
302.53127
302.15382
301.77314
301.38909
301.00152
300.61033
300.21541
299.81668
299.41407
299.00756
298.59713
298.18278
328.35222
327.67933
327.01543
326.36121
325.71728
325.08416
324.46229
323.85201
323.25358
322.66715
322.09282
321.53059
320.98039
320.44209
319.9155
319.40038
318.89645
318.40338
317.92083
317.44841
316.98575
316.53243
316.08803
315.65214
315.22432
314.80417
314.39125
313.98516
313.58548
313.1918
312.80374
312.4209
312.04292
311.66941
311.30001
310.93439
310.57219
310.21307
309.85672
309.50281
309.15104
308.80109
308.45267
308.10549
307.75925
307.41368
307.06851
306.72345
306.37825
306.03263
305.68634
305.33912
304.99072
304.64089
304.2894
303.936
303.58047
303.22258
302.8621
302.49884
302.1326
301.76318
301.39042
301.01414
300.63422
300.25051
299.86291
299.47134
299.07572
298.67602
298.27222
297.86432
327.70028
327.01522
326.33996
325.67527
325.0218
324.38012
323.7507
323.13389
322.52995
321.93904
321.36122
320.79647
320.24469
319.70571
319.17928
318.66512
318.16291
317.67225
317.19276
316.72401
316.26555
315.81695
315.37773
314.94743
314.5256
314.11177
313.70549
313.30631
312.9138
312.52753
312.14708
311.77204
311.40201
311.03661
310.67546
310.31819
309.96446
309.6139
309.26619
308.921
308.57801
308.23689
307.89735
307.55909
307.22181
306.88522
306.54904
306.21299
305.87679
305.54017
305.20287
304.86463
304.52517
304.18425
303.84161
303.49702
303.15022
302.80097
302.44906
302.09427
301.73637
301.37517
301.01049
300.64215
300.27
299.89389
299.51371
299.12936
298.74078
298.34791
297.95073
297.54925
327.03725
326.33917
325.6518
324.97596
324.31238
323.66169
323.02436
322.40077
321.79118
321.19574
320.61448
320.04734
319.49418
318.95477
318.42883
317.916
317.4159
316.92809
316.45212
315.98751
315.53375
315.09036
314.65681
314.23261
313.81725
313.41023
313.01107
312.61929
312.23442
311.856
311.4836
311.11678
310.75514
310.39825
310.04574
309.69723
309.35233
309.01071
308.672
308.33587
308.002
307.67005
307.33972
307.0107
306.68268
306.35538
306.0285
305.70175
305.37485
305.04753
304.7195
304.3905
304.06026
303.72852
303.395
303.05946
302.72164
302.3813
302.03818
301.69207
301.34273
300.98995
300.63353
300.27329
299.90905
299.54066
299.168
298.79096
298.40946
298.02344
297.63288
297.2378
326.36224
325.6502
324.94986
324.26215
323.58786
322.92765
322.28205
321.65145
321.03609
320.43609
319.85147
319.28212
318.72783
318.18832
317.66324
317.15217
316.65465
316.17019
315.69826
315.23831
314.7898
314.35216
313.92483
313.50727
313.09891
312.69924
312.30771
311.92383
311.54709
311.17701
310.81312
310.45498
310.10216
309.75422
309.41076
309.07139
308.73573
308.40341
308.07407
307.74737
307.42297
307.10053
306.77974
306.46029
306.14186
305.82416
305.50689
305.18975
304.87245
304.55472
304.23626
303.9168
303.59606
303.27377
302.94965
302.62343
302.29485
301.96366
301.62959
301.29239
300.95183
300.60768
300.25973
299.90775
299.55159
299.19106
298.82603
298.45637
298.08201
297.70287
297.31893
296.93019
325.67425
324.94721
324.23298
323.5326
322.84694
322.1767
321.52246
320.8846
320.26336
319.65884
319.07099
318.49965
317.94455
317.40533
316.88156
316.37275
315.87835
315.3978
314.93049
314.47581
314.03314
313.60186
313.18135
312.77101
312.37025
311.97848
311.59514
311.21969
310.8516
310.49036
310.13548
309.78649
309.44294
309.10439
308.77041
308.44061
308.11458
307.79196
307.47237
307.15546
306.84089
306.52831
306.21741
305.90786
305.59935
305.29157
304.98422
304.677
304.36962
304.06178
303.75319
303.44357
303.13262
302.82007
302.50563
302.18902
301.86997
301.54819
301.22342
300.8954
300.56386
300.22857
299.88928
299.54577
299.19785
298.84533
298.48805
298.12587
297.75871
297.38648
297.00915
296.62673
324.9722
324.22899
323.49985
322.78592
322.08816
321.40736
320.74409
320.09875
319.47157
318.86259
318.2717
317.69868
317.14317
316.60471
316.08279
315.57682
315.08616
314.61016
314.14813
313.69938
313.26322
312.83896
312.42592
312.02345
311.63089
311.24764
310.87307
310.50663
310.14774
309.79587
309.45051
309.11117
308.77737
308.44866
308.12461
307.8048
307.48882
307.17629
306.86684
306.5601
306.25573
305.95337
305.6527
305.3534
305.05514
304.75762
304.46052
304.16354
303.86639
303.56875
303.27034
302.97086
302.67002
302.36751
302.06305
301.75634
301.4471
301.13503
300.81984
300.50126
300.179
299.8528
299.52241
299.18759
298.8481
298.50375
298.15435
297.79976
297.43987
297.07458
296.70386
296.32772
324.25486
323.49417
322.74897
322.02053
321.30991
320.61796
319.94529
319.29228
318.65913
318.04583
317.45218
316.87787
316.32243
315.78531
315.26587
314.76342
314.27721
313.80649
313.35049
312.90841
312.47949
312.06298
311.65812
311.2642
310.88053
310.50644
310.14128
309.78443
309.43533
309.09339
308.75808
308.4289
308.10534
307.78696
307.47329
307.1639
306.8584
306.55638
306.25746
305.96128
305.66747
305.3757
305.08562
304.79691
304.50925
304.22231
303.9358
303.64939
303.36278
303.07568
302.78777
302.49875
302.20831
301.91617
301.622
301.3255
301.02637
300.72431
300.419
300.11014
299.79745
299.48062
299.15938
298.83346
298.50261
298.16661
297.82526
297.47838
297.12583
296.76753
296.40343
296.03351
323.52086
322.74121
321.97867
321.23466
320.51035
319.80666
319.12421
318.46338
317.82431
317.20689
316.61086
316.03576
315.481
314.9459
314.42969
313.93154
313.45061
312.986
312.53685
312.10227
311.68142
311.27344
310.87754
310.49292
310.11885
309.75461
309.39952
309.05292
308.7142
308.38277
308.05807
307.73958
307.42678
307.1192
306.81638
306.51788
306.22329
305.93219
305.64421
305.35897
305.07612
304.79529
304.51617
304.23841
303.96168
303.68568
303.41008
303.13457
302.85885
302.5826
302.30551
302.02728
301.74759
301.46613
301.18257
300.89661
300.60792
300.31618
300.02107
299.72225
299.41942
299.11224
298.80043
298.48368
298.16171
297.83427
297.50113