/*--------------------------------*- C++ -*----------------------------------*\
| =========                 |                                                 |
| \\      /  F ield         | OpenFOAM: The Open Source CFD Toolbox           |
|  \\    /   O peration     | Version:  v1606+                                |
|   \\  /    A nd           | Web:      www.OpenFOAM.com                      |
|    \\/     M anipulation  |                                                 |
\*---------------------------------------------------------------------------*/
FoamFile
{
    version     2.0;
    format      ascii;
    class       volScalarField;
    location    "0.05/unShaded";
    object      T;
}
// * * * * * * * * * * * * * * * * * * * * * * * * * * * * * * * * * * * * * //

dimensions      [0 0 0 1 0 0 0];

internalField   nonuniform List<scalar> 
24480
(
374.10698
375.8965
377.44375
378.83007
380.09802
381.27286
382.37111
383.40435
384.38112
385.30797
386.1901
387.03169
387.83623
388.60664
389.34539
390.05464
390.73623
391.39182
392.02284
392.63059
393.21623
393.78078
394.32521
394.85035
395.35701
395.84589
396.31766
396.77293
397.21226
397.63617
398.04516
398.43967
398.82014
399.18695
399.54049
399.8811
400.20911
400.52484
400.82857
401.12059
401.40116
401.67053
401.92893
402.1766
402.41374
402.64056
402.85726
403.06403
403.26103
403.44845
403.62644
403.79516
403.95476
404.10539
404.24718
404.38027
404.50478
404.62085
404.72858
404.8281
404.91951
405.00292
405.07844
405.14616
405.20619
405.25861
405.30352
405.34101
405.37116
405.39406
405.40978
405.41841
405.42003
405.4147
405.4025
405.3835
405.35778
405.32539
405.28642
405.24091
405.18893
405.13055
405.06583
404.99482
404.91759
404.83418
404.74467
404.64909
404.54751
404.43998
404.32656
404.20728
404.08221
403.9514
403.81488
403.67272
403.52495
403.37163
403.21281
403.04852
402.87881
402.70373
402.52332
402.33763
402.14669
401.95056
401.74927
401.54286
401.33138
401.11486
400.89335
400.66688
400.4355
400.19925
399.95815
399.71226
399.4616
399.20622
398.94615
398.68142
398.41208
398.13816
397.8597
397.57672
397.28926
396.99736
396.70104
396.40035
396.09531
395.78595
395.47231
395.15442
394.8323
394.50598
394.1755
393.84087
393.50214
393.15932
392.81244
392.46152
392.1066
391.74769
391.38482
391.01801
390.64728
390.27265
389.89414
389.51178
389.12557
388.73554
388.3417
387.94408
387.54267
387.1375
386.72859
386.31593
385.89954
385.47944
385.05562
384.6281
384.19689
383.76198
383.32339
382.88111
382.43514
381.9855
381.53217
381.07516
373.86473
375.47212
376.93801
378.28178
379.52446
380.68278
381.76946
382.79416
383.76437
384.68604
385.56396
386.40208
387.2037
387.97162
388.70823
389.41562
390.09558
390.74972
391.37945
391.98605
392.57064
393.13425
393.67781
394.20218
394.70812
395.19634
395.6675
396.1222
396.56101
396.98443
397.39297
397.78706
398.16712
398.53357
398.88675
399.22703
399.55473
399.87016
400.17362
400.46537
400.74569
401.01482
401.273
401.52045
401.75739
401.98402
402.20053
402.40712
402.60395
402.7912
402.96904
403.13761
403.29707
403.44756
403.58922
403.72218
403.84657
403.96251
404.07013
404.16954
404.26084
404.34415
404.41957
404.48719
404.54712
404.59946
404.64428
404.68168
404.71175
404.73456
404.75021
404.75876
404.7603
404.7549
404.74263
404.72357
404.69777
404.66532
404.62628
404.58071
404.52867
404.47023
404.40545
404.33438
404.25709
404.17363
404.08406
403.98843
403.8868
403.77922
403.66574
403.54641
403.42129
403.29043
403.15386
403.01165
402.86384
402.71048
402.5516
402.38727
402.21751
402.04239
401.86194
401.6762
401.48523
401.28905
401.08772
400.88127
400.66974
400.45319
400.23164
400.00513
399.77371
399.53742
399.29628
399.05035
398.79966
398.54424
398.28413
398.01937
397.75
397.47604
397.19754
396.91453
396.62704
396.3351
396.03876
395.73803
395.43296
395.12357
394.8099
394.49198
394.16982
393.84348
393.51297
393.17832
392.83956
392.49671
392.1498
391.79887
391.44392
391.08499
390.72209
390.35526
389.98451
389.60986
389.23133
388.84895
388.46273
388.07268
387.67883
387.28119
386.87977
386.47459
386.06566
385.65299
385.23659
384.81648
384.39266
383.96513
383.53391
383.099
382.6604
382.21812
381.77216
381.32252
380.86919
380.41218
373.74456
375.18923
376.55438
377.83459
379.03524
380.16435
381.22979
382.23845
383.19617
384.10785
384.97761
385.80896
386.60487
387.36791
388.10031
388.80401
389.48074
390.13202
390.7592
391.3635
391.94602
392.50776
393.04962
393.57243
394.07694
394.56384
395.03379
395.48737
395.92513
396.34759
396.75522
397.14846
397.52774
397.89343
398.24592
398.58554
398.91262
399.22746
399.53036
399.8216
400.10142
400.37007
400.6278
400.87482
401.11135
401.33759
401.55373
401.75996
401.95645
402.14338
402.3209
402.48917
402.64834
402.79856
402.93995
403.07265
403.1968
403.31251
403.41989
403.51908
403.61017
403.69327
403.76849
403.83592
403.89566
403.94781
403.99246
404.02969
404.05959
404.08224
404.09773
404.10613
404.10752
404.10197
404.08956
404.07035
404.04443
404.01184
403.97267
403.92697
403.87481
403.81625
403.75135
403.68016
403.60276
403.51919
403.4295
403.33377
403.23203
403.12435
403.01076
402.89134
402.76612
402.63515
402.4985
402.35619
402.20828
402.05482
401.89586
401.73143
401.56159
401.38638
401.20584
401.02002
400.82896
400.6327
400.43128
400.22475
400.01314
399.79651
399.57488
399.34829
399.1168
398.88043
398.63922
398.39321
398.14244
397.88695
397.62677
397.36194
397.09249
396.81847
396.5399
396.25682
395.96926
395.67726
395.38085
395.08006
394.77492
394.46547
394.15174
393.83376
393.51155
393.18515
392.85458
392.51987
392.18106
391.83816
391.4912
391.14022
390.78522
390.42624
390.0633
389.69643
389.32564
388.95095
388.57238
388.18996
387.80371
387.41363
387.01974
386.62207
386.22063
385.81542
385.40647
384.99378
384.57736
384.15723
383.7334
383.30586
382.87463
382.43971
382.00111
381.55882
381.11286
380.66322
380.20989
379.75289
373.66885
374.98588
376.25568
377.46697
378.61756
379.7096
380.7469
381.73368
382.674
383.57157
384.42969
385.25129
386.03892
386.79485
387.52108
388.21939
388.89136
389.53841
390.16182
390.76273
391.3422
391.90116
392.44049
392.96098
393.46336
393.94831
394.41645
394.86836
395.30456
395.72557
396.13185
396.52383
396.90192
397.26651
397.61795
397.95659
398.28274
398.59671
398.89878
399.18923
399.4683
399.73625
399.9933
400.23969
400.4756
400.70126
400.91685
401.12254
401.31853
401.50496
401.68202
401.84984
402.00858
402.15838
402.29937
402.43169
402.55547
402.67082
402.77786
402.87671
402.96748
403.05027
403.12519
403.19233
403.25179
403.30367
403.34805
403.38502
403.41467
403.43708
403.45233
403.4605
403.46167
403.4559
403.44328
403.42387
403.39774
403.36495
403.32559
403.2797
403.22735
403.16861
403.10353
403.03217
402.95459
402.87085
402.78101
402.68511
402.58321
402.47537
402.36164
402.24206
402.11669
401.98558
401.84877
401.70632
401.55828
401.40468
401.24558
401.08102
400.91104
400.7357
400.55503
400.36908
400.17789
399.9815
399.77996
399.57331
399.36158
399.14482
398.92307
398.69637
398.46476
398.22827
397.98695
397.74083
397.48995
397.23435
396.97406
396.70912
396.43957
396.16544
395.88677
395.60358
395.31592
395.02382
394.72732
394.42643
394.1212
393.81166
393.49784
393.17976
392.85747
392.53098
392.20033
391.86554
391.52665
391.18367
390.83664
390.48558
390.13051
389.77146
389.40846
389.04151
388.67066
388.29591
387.91729
387.53482
387.14851
386.75838
386.36445
385.96673
385.56525
385.16
384.75101
384.33829
383.92185
383.50169
383.07783
382.65028
382.21903
381.7841
381.34549
380.9032
380.45723
380.00759
379.55428
379.09728
373.61381
374.82975
376.0155
377.16004
378.25843
379.30958
380.31453
381.27537
382.19458
383.07474
383.9183
384.72757
385.50466
386.25148
386.96977
387.6611
388.3269
388.96846
389.58694
390.18342
390.75887
391.31419
391.85019
392.36763
392.86722
393.34959
393.81534
394.26504
394.69919
395.11829
395.52278
395.91309
396.28962
396.65273
397.00279
397.34013
397.66505
397.97785
398.27883
398.56823
398.84631
399.11332
399.36948
399.61501
399.85012
400.075
400.28985
400.49483
400.69014
400.87593
401.05236
401.21959
401.37775
401.527
401.66746
401.79928
401.92256
402.03744
402.14402
402.24243
402.33277
402.41515
402.48967
402.55642
402.61551
402.66702
402.71105
402.74768
402.777
402.79908
402.81402
402.82188
402.82275
402.81669
402.80379
402.7841
402.7577
402.72465
402.68503
402.63888
402.58629
402.5273
402.46199
402.3904
402.31259
402.22863
402.13856
402.04245
401.94034
401.83229
401.71835
401.59857
401.473
401.34169
401.2047
401.06206
400.91382
400.76004
400.60075
400.43601
400.26586
400.09034
399.9095
399.72337
399.53201
399.33546
399.13375
398.92693
398.71504
398.49813
398.27622
398.04936
397.81759
397.58095
397.33948
397.09321
396.84218
396.58643
396.326
396.06092
395.79122
395.51695
395.23814
394.95482
394.66703
394.3748
394.07816
393.77715
393.47179
393.16213
392.84818
392.52999
392.20758
391.88098
391.55021
391.21532
390.87631
390.53323
390.1861
389.83494
389.47978
389.12064
388.75754
388.39051
388.01958
387.64475
387.26605
386.8835
386.49712
386.10693
385.71294
385.31516
384.91362
384.50833
384.09929
383.68653
383.27005
382.84986
382.42597
381.99839
381.56712
381.13217
380.69355
380.25125
379.80529
379.35565
378.90234
378.44536
373.57044
374.7038
375.81652
376.89927
377.94655
378.95575
379.92627
380.85868
381.75423
382.6145
383.4412
384.23604
385.00067
385.73664
386.44542
387.12835
387.78669
388.42157
389.03406
389.62513
390.19568
390.74653
391.27845
391.79215
392.28829
392.76748
393.2303
393.67726
394.10888
394.52561
394.92789
395.31613
395.69072
396.05201
396.40036
396.73608
397.05947
397.37083
397.67044
397.95854
398.2354
398.50124
398.75629
399.00076
399.23486
399.45878
399.6727
399.87681
400.07127
400.25626
400.43191
400.59839
400.75585
400.90441
401.04421
401.17539
401.29806
401.41234
401.51836
401.61622
401.70603
401.78789
401.86191
401.92818
401.9868
402.03786
402.08145
402.11765
402.14655
402.16824
402.18278
402.19026
402.19076
402.18434
402.17107
402.15104
402.1243
402.09093
402.05098
402.00452
401.95162
401.89233
401.82672
401.75484
401.67675
401.59251
401.50217
401.40578
401.30341
401.1951
401.0809
400.96087
400.83505
400.7035
400.56626
400.42338
400.27491
400.1209
399.96139
399.79642
399.62604
399.4503
399.26924
399.08291
398.89133
398.69457
398.49266
398.28563
398.07354
397.85642
397.63431
397.40726
397.1753
396.93846
396.6968
396.45034
396.19913
395.9432
395.68258
395.41732
395.14745
394.87301
394.59403
394.31054
394.02258
393.73018
393.43338
393.13221
392.8267
392.51688
392.20278
391.88444
391.56188
391.23513
390.90423
390.5692
390.23006
389.88685
389.53959
389.18831
388.83302
388.47377
388.11056
387.74342
387.37238
386.99745
386.61866
386.23602
385.84955
385.45928
385.06521
384.66736
384.26575
383.8604
383.4513
383.03849
382.62196
382.20172
381.7778
381.35018
380.91889
380.48392
380.04528
379.60298
379.15701
378.70737
378.25408
377.79711
373.53459
374.59851
375.6475
376.67398
377.67273
378.64061
379.57612
380.47884
381.34915
382.18784
382.99597
383.77472
384.52532
385.24899
385.94691
386.6202
387.26992
387.89708
388.5026
389.08737
389.65218
390.1978
390.72493
391.23423
391.72631
392.20176
392.6611
393.10484
393.53345
393.94738
394.34704
394.73283
395.10512
395.46425
395.81055
396.14435
396.46593
396.77557
397.07355
397.36011
397.6355
397.89995
398.15368
398.39689
398.62978
398.85255
399.06537
399.26843
399.46189
399.64591
399.82064
399.98623
400.14283
400.29057
400.42959
400.56
400.68194
400.79552
400.90085
400.99806
401.08723
401.16848
401.2419
401.30759
401.36565
401.41617
401.45923
401.49492
401.52333
401.54453
401.5586
401.56563
401.56567
401.55882
401.54513
401.52469
401.49754
401.46377
401.42344
401.37661
401.32334
401.26369
401.19772
401.12549
401.04706
400.96248
400.87181
400.77511
400.67242
400.56379
400.44929
400.32895
400.20284
400.07099
399.93347
399.7903
399.64155
399.48726
399.32747
399.16224
398.99159
398.81559
398.63427
398.44767
398.25585
398.05883
397.85667
397.6494
397.43706
397.2197
396.99736
396.77007
396.53787
396.30081
396.05892
395.81224
395.5608
395.30465
395.04382
394.77834
394.50826
394.23361
393.95442
393.67072
393.38256
393.08997
392.79297
392.49161
392.18591
391.8759
391.56162
391.2431
390.92037
390.59345
390.26238
389.92718
389.58788
389.24452
388.8971
388.54567
388.19025
387.83085
387.46751
387.10024
386.72907
386.35403
385.97512
385.59237
385.2058
384.81542
384.42126
384.02332
383.62163
383.2162
382.80703
382.39415
381.97756
381.55728
381.13331
380.70566
380.27433
379.83934
379.40068
378.95837
378.51239
378.06276
377.60948
377.15253
373.50402
374.50814
375.50099
376.47643
377.42978
378.35786
379.25874
380.13143
380.97569
381.79174
382.58011
383.34155
384.07692
384.7871
385.47303
386.13561
386.77572
387.39422
387.99191
388.56955
389.12787
389.66755
390.18924
390.69352
391.18098
391.65213
392.1075
392.54754
392.97271
393.38342
393.78007
394.16303
394.53267
394.8893
395.23325
395.56483
395.88431
396.19197
396.48807
396.77285
397.04655
397.30939
397.56158
397.80333
398.03482
398.25626
398.46781
398.66965
398.86194
399.04484
399.2185
399.38307
399.53867
399.68546
399.82356
399.95309
400.07418
400.18694
400.29148
400.38792
400.47635
400.55689
400.62962
400.69464
400.75205
400.80194
400.84439
400.87948
400.90731
400.92795
400.94147
400.94797
400.9475
400.94014
400.92596
400.90503
400.87742
400.84319
400.8024
400.75513
400.70143
400.64136
400.57498
400.50234
400.42352
400.33855
400.2475
400.15041
400.04735
399.93837
399.8235
399.70282
399.57636
399.44417
399.30631
399.16281
399.01373
398.85912
398.69901
398.53346
398.3625
398.18619
398.00457
397.81767
397.62555
397.42824
397.22579
397.01823
396.80561
396.58797
396.36535
396.13778
395.90532
395.66798
395.42583
395.17888
394.92719
394.67078
394.40969
394.14397
393.87364
393.59874
393.31931
393.03538
392.74698
392.45415
392.15693
391.85534
391.54942
391.2392
390.92471
390.60598
390.28304
389.95592
389.62465
389.28926
388.94978
388.60623
388.25863
387.90703
387.55144
387.19188
386.82838
386.46096
386.08965
385.71446
385.33541
384.95254
384.56584
384.17535
383.78108
383.38304
382.98125
382.57573
382.16648
381.75353
381.33687
380.91653
380.4925
380.0648
379.63344
379.19842
378.75974
378.31742
377.87144
377.42181
376.96854
376.51161
373.47735
374.42903
375.37191
376.30095
377.2121
378.10232
378.96953
379.81246
380.63045
381.42331
382.19119
382.93447
383.65368
384.34947
385.0225
385.67349
386.30314
386.91217
387.50126
388.07106
388.62221
389.15531
389.67094
390.16964
390.65193
391.11831
391.56922
392.00512
392.42642
392.83352
393.22678
393.60657
393.97321
394.32703
394.66834
394.99741
395.31452
395.61994
395.91391
396.19668
396.46846
396.72947
396.97992
397.22001
397.44993
397.66986
397.87996
398.08042
398.27139
398.45302
398.62546
398.78885
398.94334
399.08905
399.2261
399.35463
399.47475
399.58658
399.69022
399.78579
399.87338
399.9531
400.02504
400.0893
400.14597
400.19514
400.23689
400.27131
400.29848
400.31848
400.33138
400.33727
400.33621
400.32827
400.31353
400.29205
400.2639
400.22915
400.18786
400.14008
400.08589
400.02534
399.95849
399.88539
399.80611
399.7207
399.62921
399.5317
399.42822
399.31882
399.20355
399.08246
398.9556
398.82302
398.68477
398.5409
398.39145
398.23646
398.07599
397.91008
397.73877
397.56211
397.38014
397.1929
397.00044
396.80279
396.60001
396.39212
396.17918
395.96122
395.73828
395.5104
395.27762
395.03998
394.79752
394.55028
394.29828
394.04158
393.78021
393.51419
393.24358
392.9684
392.6887
392.40449
392.11583
391.82274
391.52525
391.22341
390.91724
390.60676
390.29203
389.97306
389.64988
389.32254
388.99104
388.65543
388.31574
387.97198
387.62418
387.27238
386.91659
386.55685
386.19317
385.82558
385.45409
385.07874
384.69955
384.31652
383.92969
383.53906
383.14466
382.74651
382.34461
381.93898
381.52964
381.1166
380.69987
380.27945
379.85537
379.42762
378.99621
378.56116
378.12246
377.68011
377.23413
376.78451
376.33125
375.87435
373.45371
374.35871
375.25666
376.14338
377.01534
377.86978
378.70461
379.51843
380.31033
381.07986
381.82686
382.55144
383.25388
383.93458
384.59401
385.23269
385.85119
386.45007
387.02989
387.59122
388.13459
388.66054
389.16957
389.66217
390.13881
390.59993
391.04596
391.4773
391.89434
392.29745
392.68697
393.06324
393.42658
393.77729
394.11565
394.44194
394.75643
395.05936
395.35097
395.63148
395.90113
396.16011
396.40863
396.64687
396.87503
397.09327
397.30177
397.50068
397.69017
397.87038
398.04146
398.20355
398.35678
398.50128
398.63717
398.76458
398.88362
398.9944
399.09704
399.19163
399.27828
399.35708
399.42814
399.49155
399.54739
399.59576
399.63673
399.67039
399.69682
399.7161
399.72831
399.73351
399.73179
399.72321
399.70784
399.68575
399.657
399.62166
399.57979
399.53145
399.47671
399.41562
399.34824
399.27463
399.19484
399.10893
399.01695
398.91896
398.815
398.70513
398.58941
398.46787
398.34056
398.20755
398.06887
397.92457
397.7747
397.6193
397.45842
397.2921
397.12039
396.94334
396.76098
396.57335
396.38051
396.18249
395.97933
395.77108
395.55777
395.33945
395.11615
394.88792
394.65479
394.41681
394.174
393.92642
393.67409
393.41706
393.15536
392.88902
392.61809
392.3426
392.06258
391.77807
391.48911
391.19572
390.89794
390.5958
390.28935
389.9786
389.66359
389.34435
389.02091
388.6933
388.36155
388.0257
387.68576
387.34176
386.99374
386.64171
386.28571
385.92575
385.56187
385.19408
384.82241
384.44688
384.06751
383.68431
383.29732
382.90655
382.51201
382.11372
381.71169
381.30595
380.8965
380.48336
380.06654
379.64605
379.2219
378.79409
378.36263
377.92754
377.48881
377.04645
376.60046
376.15084
375.6976
375.24073
373.43247
374.29545
375.15265
376.00055
376.83612
377.65683
378.46072
379.24631
380.0126
380.75893
381.48495
382.19056
382.87583
383.54096
384.18626
384.81209
385.41886
386.00702
386.57703
387.12933
387.6644
388.18269
388.68463
389.17067
389.64121
390.09665
390.53739
390.96378
391.37619
391.77496
392.16041
392.53285
392.89258
393.23988
393.57503
393.89829
394.20989
394.51009
394.79911
395.07716
395.34447
395.60122
395.84761
396.08382
396.31004
396.52643
396.73315
396.93037
397.11823
397.29688
397.46646
397.62711
397.77895
397.92212
398.05672
398.18289
398.30074
398.41037
398.51189
398.60541
398.69102
398.76882
398.8389
398.90137
398.95629
399.00377
399.04387
399.0767
399.10231
399.1208
399.13224
399.13669
399.13423
399.12494
399.10887
399.0861
399.05668
399.02069
398.97819
398.92923
398.87388
398.81219
398.74423
398.67004
398.58969
398.50323
398.4107
398.31218
398.2077
398.09731
397.98108
397.85904
397.73124
397.59774
397.45858
397.31381
397.16347
397.00761
396.84628
396.67951
396.50736
396.32987
396.14707
395.95902
395.76576
395.56732
395.36374
395.15508
394.94137
394.72265
394.49895
394.27033
394.03682
393.79845
393.55527
393.30731
393.05461
392.79721
392.53514
392.26845
391.99716
391.72132
391.44096
391.15611
390.86681
390.57309
390.27498
389.97252
389.66575
389.35469
389.03937
388.71983
388.3961
388.06821
387.73618
387.40004
387.05983
386.71557
386.36729
386.01502
385.65877
385.29858
384.93447
384.56647
384.19459
383.81885
383.43929
383.05591
382.66874
382.2778
381.8831
381.48466
381.0825
380.67663
380.26706
379.85381
379.43689
379.01631
378.59208
378.1642
377.73269
377.29756
376.85879
376.41641
375.97042
375.5208
375.06757
374.61073
373.41321
374.23798
375.05793
375.87007
376.67175
377.46071
378.23511
378.99351
379.73482
380.4583
381.16346
381.85002
382.51792
383.16718
383.79798
384.41053
385.00514
385.58213
386.14185
386.68468
387.211
387.72118
388.21561
388.69466
389.1587
389.60808
390.04315
390.46425
390.87169
391.2658
391.64686
392.01517
392.37101
392.71464
393.04631
393.36627
393.67476
393.972
394.25821
394.5336
394.79836
395.05269
395.29676
395.53077
395.75488
395.96925
396.17405
396.36941
396.5555
396.73245
396.90039
397.05947
397.2098
397.35151
397.48472
397.60954
397.72608
397.83445
397.93475
398.0271
398.11157
398.18827
398.25729
398.31872
398.37264
398.41914
398.45831
398.49021
398.51494
398.53256
398.54315
398.54678
398.54352
398.53344
398.51661
398.49309
398.46295
398.42624
398.38304
398.3334
398.27738
398.21504
398.14644
398.07162
397.99065
397.90358
397.81046
397.71135
397.60629
397.49534
397.37855
397.25596
397.12763
396.99359
396.85391
396.70862
396.55777
396.4014
396.23957
396.07231
395.89967
395.7217
395.53843
395.34991
395.15618
394.95728
394.75325
394.54414
394.32998
394.11082
393.88669
393.65764
393.42369
393.1849
392.9413
392.69293
392.43982
392.18202
391.91956
391.65247
391.38079
391.10457
390.82382
390.5386
390.24892
389.95484
389.65637
389.35356
389.04644
388.73504
388.41938
388.09951
387.77546
387.44724
387.1149
386.77846
386.43796
386.09341
385.74485
385.3923
385.03579
384.67534
384.31098
383.94273
383.57061
383.19466
382.81488
382.43129
382.04393
381.6528
381.25793
380.85933
380.45701
380.051
379.6413
379.22793
378.8109
378.39022
377.9659
377.53795
377.10638
376.6712
376.2324
375.78999
375.34399
374.89438
374.44117
373.98436
373.39558
374.18534
374.97102
375.75004
376.52009
377.27915
378.02551
378.75778
379.47489
380.176
380.86055
381.52816
382.17863
382.81187
383.42794
384.02693
384.60904
385.1745
385.72357
386.25654
386.77372
387.27542
387.76196
388.23366
388.69084
389.13382
389.56289
389.97836
390.38053
390.76967
391.14606
391.50997
391.86165
392.20134
392.5293
392.84574
393.15088
393.44495
393.72814
394.00065
394.26268
394.5144
394.75599
394.98762
395.20946
395.42165
395.62436
395.81773
396.00191
396.17702
396.3432
396.50057
396.64927
396.78941
396.9211
397.04445
397.15958
397.26659
397.36558
397.45665
397.53989
397.6154
397.68326
397.74357
397.79641
397.84186
397.88
397.91091
397.93466
397.95134
397.96101
397.96375
397.95962
397.94869
397.93103
397.9067
397.87577
397.83829
397.79433
397.74395
397.68721
397.62416
397.55485
397.47935
397.39771
397.30998
397.21622
397.11647
397.01079
396.89922
396.78182
396.65863
396.52971
396.39509
396.25484
396.10898
395.95757
395.80066
395.63829
395.47049
395.29732
395.11883
394.93504
394.746
394.55177
394.35237
394.14784
393.93824
393.7236
393.50396
393.27935
393.04983
392.81542
392.57617
392.33211
392.08329
391.82974
391.57149
391.30859
391.04107
390.76897
390.49232
390.21117
389.92553
389.63545
389.34097
389.04211
388.73891
388.43141
388.11963
387.80361
387.48338
387.15897
386.83041
386.49773
386.16096
385.82012
385.47526
385.12639
384.77354
384.41673
384.056
383.69137
383.32286
382.95049
382.57428
382.19427
381.81046
381.42289
381.03156
380.63649
380.23771
379.83522
379.42905
379.01921
378.6057
378.18855
377.76777
377.34336
376.91533
376.48369
376.04845
375.60961
375.16718
374.72116
374.27155
373.81836
373.36158
373.37933
374.1368
374.89075
375.63897
376.37943
377.11029
377.83
378.53723
379.23093
379.91026
380.57458
381.22344
381.85656
382.47375
383.07496
383.66021
384.2296
384.78327
385.32139
385.8442
386.35193
386.84482
387.32315
387.78719
388.2372
388.67345
389.09623
389.50579
389.90239
390.28629
390.65775
391.01699
391.36426
391.69979
392.0238
392.33649
392.63808
392.92877
393.20875
393.4782
393.73731
393.98624
394.22518
394.45427
394.67367
394.88354
395.08402
395.27526
395.45738
395.63052
395.7948
395.95036
396.0973
396.23575
396.36581
396.4876
396.60121
396.70676
396.80433
396.89403
396.97595
397.05017
397.1168
397.1759
397.22757
397.27188
397.30892
397.33875
397.36147
397.37713
397.38582
397.38759
397.38252
397.37068
397.35212
397.32692
397.29513
397.25682
397.21205
397.16087
397.10334
397.03952
396.96947
396.89323
396.81086
396.72242
396.62796
396.52752
396.42116
396.30893
396.19087
396.06704
395.93748
395.80224
395.66136
395.5149
395.36289
395.20538
395.04242
394.87405
394.70031
394.52124
394.33689
394.1473
393.95252
393.75258
393.54752
393.33739
393.12222
392.90205
392.67694
392.4469
392.21199
391.97224
391.72769
391.47838
391.22434
390.96562
390.70225
390.43426
390.1617
389.8846
389.60299
389.31691
389.02639
388.73147
388.43219
388.12857
387.82066
387.50847
387.19205
386.87143
386.54663
386.21769
385.88464
385.54751
385.20632
384.86111
384.51191
384.15873
383.80161
383.44057
383.07564
382.70684
382.33419
381.95772
381.57745
381.1934
380.80559
380.41404
380.01877
379.61979
379.21712
378.81078
378.40078
377.98713
377.56985
377.14894
376.72443
376.29631
375.8646
375.4293
374.99041
374.54795
374.10192
373.65232
373.19914
372.7424
373.36427
374.09177
374.81622
375.53568
376.24835
376.95258
377.64695
378.33022
379.00136
379.65953
380.30407
380.93448
381.5504
382.1516
382.73794
383.30936
383.86588
384.40756
384.93454
385.44694
385.94496
386.42879
386.89864
387.35473
387.7973
388.22657
388.64278
389.04616
389.43695
389.81537
390.18164
390.53599
390.87863
391.20977
391.52961
391.83835
392.13619
392.4233
392.69988
392.96609
393.22211
393.46809
393.7042
393.9306
394.14742
394.35482
394.55293
394.74189
394.92183
395.09287
395.25514
395.40875
395.55383
395.69047
395.8188
395.93891
396.05091
396.15489
396.25096
396.3392
396.4197
396.49255
396.55785
396.61566
396.66608
396.70918
396.74504
396.77373
396.79533
396.8099
396.81753
396.81827
396.8122
396.79937
396.77986
396.75372
396.72102
396.68182
396.63617
396.58413
396.52576
396.46112
396.39026
396.31323
396.23009
396.14088
396.04567
395.94449
395.83741
395.72446
395.6057
395.48118
395.35094
395.21502
395.07348
394.92636
394.7737
394.61556
394.45196
394.28297
394.10861
393.92894
393.74399
393.5538
393.35843
393.1579
392.95227
392.74156
392.52583
392.30511
392.07944
391.84885
391.6134
391.37311
391.12803
390.87819
390.62364
390.3644
390.10052
389.83203
389.55897
389.28137
388.99928
388.71272
388.42173
388.12635
387.8266
387.52253
387.21417
386.90154
386.58469
386.26364
385.93843
385.60909
385.27564
384.93811
384.59655
384.25097
383.9014
383.54787
383.1904
382.82903
382.46378
382.09467
381.72172
381.34496
380.96442
380.5801
380.19204
379.80025
379.40475
379.00556
378.60269
378.19616
377.78599
377.37219
376.95476
376.53373
376.1091
375.68089
375.24909
374.81373
374.37479
373.9323
373.48625
373.03665
372.58349
372.12678
373.35023
374.0498
374.74669
375.43919
376.1257
376.80475
377.47501
378.13534
378.78475
379.42242
380.04768
380.66
381.25898
381.84432
382.41584
382.97341
383.51699
384.04658
384.56224
385.06407
385.55218
386.02673
386.48788
386.93581
387.3707
387.79275
388.20216
388.59914
388.98388
389.35659
389.71746
390.0667
390.40449
390.73104
391.04652
391.35112
391.64501
391.92837
392.20137
392.46418
392.71694
392.95981
393.19295
393.4165
393.6306
393.83538
394.03099
394.21754
394.39517
394.56399
394.72413
394.87569
395.01878
395.15352
395.28001
395.39834
395.50862
395.61095
395.70541
395.79209
395.87109
395.94249
396.00638
396.06282
396.11191
396.15372
396.18832
396.21579
396.2362
396.24963
396.25613
396.25577
396.24863
396.23476
396.21423
396.18709
396.15342
396.11326
396.06668
396.01373
395.95446
395.88894
395.81722
395.73935
395.65537
395.56536
395.46934
395.36738
395.25952
395.14581
395.0263
394.90103
394.77006
394.63343
394.49118
394.34336
394.19001
394.03118
393.86691
393.69725
393.52223
393.34191
393.15631
392.96549
392.76949
392.56834
392.36209
392.15077
391.93443
391.71311
391.48684
391.25567
391.01964
390.77878
390.53313
390.28273
390.02761
389.76782
389.50339
389.23437
388.96077
388.68265
388.40003
388.11296
387.82146
387.52558
387.22534
386.92078
386.61194
386.29885
385.98153
385.66003
385.33437
385.00458
384.67071
384.33276
383.99079
383.64481
383.29485
382.94094
382.5831
382.22138
381.85578
381.48633
381.11306
380.73599
380.35515
379.97055
379.58222
379.19017
378.79443
378.395
377.99192
377.58519
377.17484
376.76086
376.34328
375.92211
375.49736
375.06904
374.63716
374.20172
373.76274
373.32021
372.87414
372.42453
371.9714
371.51472
373.3371
374.0105
374.68154
375.34869
376.01052
376.66569
377.313
377.95138
378.57988
379.19772
379.80423
380.39886
380.98119
381.55087
382.10768
382.65145
383.18208
383.69952
384.20378
384.69491
385.17297
385.63808
386.09035
386.52992
386.95694
387.37157
387.77399
388.16435
388.54284
388.90964
389.26491
389.60884
389.94161
390.26337
390.57431
390.87459
391.16437
391.44381
391.71307
391.9723
392.22165
392.46127
392.69129
392.91185
393.12309
393.32513
393.5181
393.70213
393.87732
394.04381
394.20169
394.35109
394.49209
394.62482
394.74936
394.86582
394.97429
395.07487
395.16763
395.25268
395.33009
395.39995
395.46234
395.51734
395.56502
395.60546
395.63874
395.66492
395.68407
395.69627
395.70158
395.70006
395.69178
395.6768
395.65519
395.627
395.59229
395.55112
395.50355
395.44963
395.38942
395.32297
395.25033
395.17156
395.08671
394.99582
394.89896
394.79616
394.68748
394.57296
394.45265
394.3266
394.19485
394.05745
393.91445
393.76588
393.6118
393.45224
393.28726
393.11688
392.94117
392.76015
392.57387
392.38237
392.18569
391.98388
391.77697
391.565
391.34802
391.12606
390.89916
390.66736
390.43071
390.18923
389.94297
389.69197
389.43626
389.17588
388.91087
388.64127
388.3671
388.08842
387.80524
387.51762
387.22558
386.92916
386.6284
386.32332
386.01397
385.70037
385.38256
385.06057
384.73443
384.40418
384.06984
383.73145
383.38903
383.04262
382.69225
382.33793
381.9797
381.61759
381.25162
380.88182
380.5082
380.1308
379.74964
379.36473
378.97611
378.58379
378.18778
377.78811
377.3848
376.97785
376.5673
376.15314
375.7354
375.31408
374.8892
374.46076
374.02878
373.59327
373.15422
372.71165
372.26556
371.81595
371.36283
370.9062
373.32476
373.97357
374.62027
375.26351
375.90199
376.5345
377.15993
377.77729
378.38569
378.98436
379.57266
380.15003
380.71603
381.2703
381.81257
382.34264
382.86035
383.36564
383.85846
384.33881
384.80672
385.26227
385.70551
386.13658
386.55557
386.96261
387.35785
387.74143
388.1135
388.47421
388.82371
389.16216
389.48972
389.80653
390.11276
390.40855
390.69406
390.96942
391.23479
391.49031
391.7361
391.97232
392.19908
392.41653
392.62477
392.82394
393.01416
393.19554
393.36819
393.53222
393.68775
393.83487
393.97369
394.1043
394.2268
394.34129
394.44786
394.54659
394.63758
394.7209
394.79664
394.86488
394.9257
394.97917
395.02537
395.06437
395.09625
395.12107
395.1389
395.1498
395.15385
395.15111
395.14163
395.12549
395.10273
395.07343
395.03763
394.99539
394.94677
394.89183
394.83061
394.76318
394.68958
394.60986
394.52407
394.43227
394.33451
394.23082
394.12127
394.00589
393.88474